Executable      : siesta
Version         : 5.4.2
Architecture    : x86_64
Compiler version: GNU-14.3.0
Compiler flags  : -march=nocona -mtune=haswell -ftree-vectorize -fPIC -fstack-protector-strong -fno-plt -O2 -ffunction-sections -pipe -isystem <prefix>/include -I<prefix>/_build_env/include -fdebug-prefix-map=<prefix>/work=/usr/local/src/conda/siesta-5.4.2 -fdebug-prefix-map=<prefix>=/usr/local/src/conda-prefix -I<prefix>/lib -fallow-argument-mismatch -O3
Parallelisations: none
NetCDF support
NetCDF-4 support
Lua support
DFT-D3 support

Runtime information:
* Directory : /home/UAB/1668068/Documents/optimitzacio/run
* Running in serial mode.
>> Start of run:  24-MAR-2026  11:46:18

                           *********************** 
                           *  WELCOME TO SIESTA  * 
                           *********************** 

 NOTE: Siesta V5 introduces some new defaults for basis-set generation
 NOTE: which might lead to slightly different numerical results.
 NOTE: Please see the manual for full details and compatibility measures.


reinit: Reading from file optimization.fdf

reinit: -----------------------------------------------------------------------
reinit: System Name: 
reinit: -----------------------------------------------------------------------
reinit: System Label: optimization
reinit: -----------------------------------------------------------------------

initatom: Reading input for the pseudopotentials and atomic orbitals ----------
Species number:   1 Atomic number:    8 Label: O
Species number:   2 Atomic number:    6 Label: C
Species number:   3 Atomic number:    7 Label: N
Species number:   4 Atomic number:    1 Label: H

Ground state valence configuration (from tables):   2s02  2p04  3d00  4f00
Ground state valence configuration (from tables):   2s02  2p02  3d00  4f00
Ground state valence configuration (from tables):   2s02  2p03  3d00  4f00
Ground state valence configuration (from tables):   1s01  2p00  3d00  4f00

---- Processing specs for species: O
Reading pseudopotential information in PSML from:
  O.psml
PSML file version: 1.1
Using libxc ids:  101 130
GGA--PBE XC_GGA_X_PBE--XC_GGA_C_PBE pb
PSML uuid: 3cff85a0-be41-11e7-6c5c-1b1fe64d18ef

---- Processing specs for species: C
Reading pseudopotential information in PSML from:
  C.psml
PSML file version: 1.1
Using libxc ids:  101 130
GGA--PBE XC_GGA_X_PBE--XC_GGA_C_PBE pb
PSML uuid: 297821e0-be41-11e7-6802-e1ff7dfff095

---- Processing specs for species: N
Reading pseudopotential information in PSML from:
  N.psml
PSML file version: 1.1
Using libxc ids:  101 130
GGA--PBE XC_GGA_X_PBE--XC_GGA_C_PBE pb
PSML uuid: 31bde650-be41-11e7-78a7-66593edf4b14

---- Processing specs for species: H
Reading pseudopotential information in PSML from:
  H.psml
PSML file version: 1.1
Using libxc ids:  101 130
GGA--PBE XC_GGA_X_PBE--XC_GGA_C_PBE pb
PSML uuid: f95fa9b0-be40-11e7-634a-9594ffff953f

---- Pseudopotential check for O 

Pseudized shells:
2s( 2.00) rc: 1.36
2p( 4.00) rc: 1.46
3d( 0.00) rc: 1.26
Valence configuration for ps generation: 2s:2p: Total charge:   6.000000

---- Pseudopotential check for C 

Pseudized shells:
2s( 2.00) rc: 1.20
2p( 2.00) rc: 1.26
Valence configuration for ps generation: 2s:2p: Total charge:   4.000000

---- Pseudopotential check for N 

Pseudized shells:
2s( 2.00) rc: 1.21
2p( 3.00) rc: 1.36
Valence configuration for ps generation: 2s:2p: Total charge:   5.000000

---- Pseudopotential check for H 

Pseudized shells:
1s( 1.00) rc: 1.01
2p( 0.00) rc: 0.71
Valence configuration for ps generation: 1s: Total charge:   1.000000
For O, standard SIESTA heuristics set lmxkb to 3
 (one more than the basis l, including polarization orbitals).
Use PS.lmax or PS.KBprojectors blocks to override.
For C, standard SIESTA heuristics set lmxkb to 3
 (one more than the basis l, including polarization orbitals).
Use PS.lmax or PS.KBprojectors blocks to override.
For N, standard SIESTA heuristics set lmxkb to 3
 (one more than the basis l, including polarization orbitals).
Use PS.lmax or PS.KBprojectors blocks to override.
For H, standard SIESTA heuristics set lmxkb to 2
 (one more than the basis l, including polarization orbitals).
Use PS.lmax or PS.KBprojectors blocks to override.
O pseudopotential only contains V_ls up to l=2 -- lmxkb reset.
C pseudopotential only contains V_ls up to l=1 -- lmxkb reset.
N pseudopotential only contains V_ls up to l=1 -- lmxkb reset.
H pseudopotential only contains V_ls up to l=1 -- lmxkb reset.

<basis_specs>
===============================================================================
O                    Z=   8    Mass=  15.999        Charge= 0.17977+309
Lmxo=2 Lmxkb= 2    BasisType=split      Semic=F
L=0  Nsemic=0  Cnfigmx=2
          i=1  nzeta=2  polorb=0  (2s)
            splnorm:   0.15000    
               vcte:    40.000    
               rinn:  -0.90000    
               qcoe:    0.0000    
               qyuk:    0.0000    
               qwid:   0.10000E-01
                rcs:    0.0000      0.0000    
            lambdas:    1.0000      1.0000    
L=1  Nsemic=0  Cnfigmx=2
          i=1  nzeta=2  polorb=1  (2p)  (to be polarized perturbatively)
            splnorm:   0.15000    
               vcte:    40.000    
               rinn:  -0.90000    
               qcoe:    0.0000    
               qyuk:    0.0000    
               qwid:   0.10000E-01
                rcs:    0.0000      0.0000    
            lambdas:    1.0000      1.0000    
L=2  Nsemic=0  Cnfigmx=3
          i=1  nzeta=0  polorb=0  (3d)  (perturbative polarization orbital) (from 2p)
-------------------------------------------------------------------------------
L=0  Nkbl=1  erefs: 0.17977+309
L=1  Nkbl=1  erefs: 0.17977+309
L=2  Nkbl=1  erefs: 0.17977+309
===============================================================================
</basis_specs>

Using PAO.SplitTailNorm
atom: Called for O                     (Z =   8)
Maximum radius (at nrval) set to   50.00000 8518

read_vps: Pseudopotential generation method:
read_vps: ONCVPSP-3.Hamann's oncvpsp                        
Valence charge in pseudo generation:    6.00000

read_vps: Pseudopotential includes a core correction:
read_vps: Pseudo-core for xc-correction

xc_check: Exchange-correlation functional:
xc_check: GGA Perdew, Burke & Ernzerhof 1996
Got Vlocal (oncv-fit) from psml data
Choosing vlocal chloc cutoff:  6.020499
qtot up to nchloc:    6.00001015
atom: Maximum radius for chlocal:    6.02050
atom: Maximum radius for r*vlocal+2*Zval:    6.02050
Reading KB projs from O psml data
Using scalar-relativistic projectors in PSML file

PSML: Kleinman-Bylander projectors: 
   l= 0   rc=  1.372412   Ekb= 12.113471
   l= 0   rc=  1.372412   Ekb=  1.648048
   l= 1   rc=  1.474132   Ekb= -9.434259
   l= 1   rc=  1.474132   Ekb= -2.298541
   l= 2   rc=  1.277664   Ekb= -2.663910

PSML: Total number of  Kleinman-Bylander projectors:  13
atom: -------------------------------------------------------------------------

atom: SANKEY-TYPE ORBITALS:
atom: Selected multiple-zeta basis: split     

SPLIT: Orbitals with angular momentum L= 0

SPLIT: Basis orbitals for state 2s

SPLIT: PAO cut-off radius determined from an
SPLIT: energy shift=  0.000735 Ry
Split based on tail norm

   izeta = 1
                 lambda =    1.000000
                     rc =    4.566021
                 energy =   -1.760280
                kinetic =    1.535743
    potential(screened) =   -3.296022
       potential(ionic) =  -11.142033

   izeta = 2
                 rmatch =    2.434474
              splitnorm =    0.150000
                 energy =   -1.441584
                kinetic =    2.530209
    potential(screened) =   -3.971793
       potential(ionic) =  -12.502519

SPLIT: Orbitals with angular momentum L= 1

SPLIT: Basis orbitals for state 2p

SPLIT: PAO cut-off radius determined from an
SPLIT: energy shift=  0.000735 Ry
Split based on tail norm

   izeta = 1
                 lambda =    1.000000
                     rc =    5.912921
                 energy =   -0.662875
                kinetic =    4.463269
    potential(screened) =   -5.126144
       potential(ionic) =  -12.659411

   izeta = 2
                 rmatch =    3.103756
              splitnorm =    0.150000
                 energy =   -0.538095
                kinetic =    5.926477
    potential(screened) =   -6.464572
       potential(ionic) =  -14.688886

POLgen: Perturbative polarization orbital with L=  2

POLgen: Polarization orbital for state 2p
Split based on tail norm

   izeta = 1
                     rc =    5.912921
                 energy =    1.865729
                kinetic =    3.536681
    potential(screened) =   -1.670952
       potential(ionic) =   -7.378590
atom: Total number of Sankey-type orbitals: 13

atm_pop: Valence configuration (for local Pseudopot. screening):
 2s( 2.00)                                                            
 2p( 4.00)                                                            
 3d( 0.00)                                                            
Vna: chval, zval:    6.00000   6.00000

Vna:  Cut-off radius for the neutral-atom potential:   5.912921
comcore: Pseudo-core radius Rcore=  1.354557

atom: _________________________________________________________________________

<basis_specs>
===============================================================================
C                    Z=   6    Mass=  12.011        Charge= 0.17977+309
Lmxo=2 Lmxkb= 1    BasisType=split      Semic=F
L=0  Nsemic=0  Cnfigmx=2
          i=1  nzeta=2  polorb=0  (2s)
            splnorm:   0.15000    
               vcte:    40.000    
               rinn:  -0.90000    
               qcoe:    0.0000    
               qyuk:    0.0000    
               qwid:   0.10000E-01
                rcs:    0.0000      0.0000    
            lambdas:    1.0000      1.0000    
L=1  Nsemic=0  Cnfigmx=2
          i=1  nzeta=2  polorb=1  (2p)  (to be polarized perturbatively)
            splnorm:   0.15000    
               vcte:    40.000    
               rinn:  -0.90000    
               qcoe:    0.0000    
               qyuk:    0.0000    
               qwid:   0.10000E-01
                rcs:    0.0000      0.0000    
            lambdas:    1.0000      1.0000    
L=2  Nsemic=0  Cnfigmx=3
          i=1  nzeta=0  polorb=0  (3d)  (perturbative polarization orbital) (from 2p)
-------------------------------------------------------------------------------
L=0  Nkbl=1  erefs: 0.17977+309
L=1  Nkbl=1  erefs: 0.17977+309
===============================================================================
</basis_specs>

Using PAO.SplitTailNorm
atom: Called for C                     (Z =   6)
NOTE: C pseudopotential has channels up to l= 1
NOTE: PAOs with higher l will be generated with V_local
Maximum radius (at nrval) set to   50.00000 8518

read_vps: Pseudopotential generation method:
read_vps: ONCVPSP-3.Hamann's oncvpsp                        
Valence charge in pseudo generation:    4.00000

read_vps: Pseudopotential includes a core correction:
read_vps: Pseudo-core for xc-correction

xc_check: Exchange-correlation functional:
xc_check: GGA Perdew, Burke & Ernzerhof 1996
Got Vlocal (oncv-fit) from psml data
Choosing vlocal chloc cutoff:  4.122282
qtot up to nchloc:    4.00001153
atom: Maximum radius for chlocal:    4.12228
atom: Maximum radius for r*vlocal+2*Zval:    4.12228
Reading KB projs from C psml data
Using scalar-relativistic projectors in PSML file

PSML: Kleinman-Bylander projectors: 
   l= 0   rc=  1.219773   Ekb= 12.963096
   l= 0   rc=  1.219773   Ekb=  0.771007
   l= 1   rc=  1.278952   Ekb= -8.399923
   l= 1   rc=  1.278952   Ekb= -1.755033

PSML: Total number of  Kleinman-Bylander projectors:   8
atom: -------------------------------------------------------------------------

atom: SANKEY-TYPE ORBITALS:
atom: Selected multiple-zeta basis: split     

SPLIT: Orbitals with angular momentum L= 0

SPLIT: Basis orbitals for state 2s

SPLIT: PAO cut-off radius determined from an
SPLIT: energy shift=  0.000735 Ry
Split based on tail norm

   izeta = 1
                 lambda =    1.000000
                     rc =    5.865727
                 energy =   -1.009782
                kinetic =    0.907850
    potential(screened) =   -1.917632
       potential(ionic) =   -5.443189

   izeta = 2
                 rmatch =    3.302919
              splitnorm =    0.150000
                 energy =   -0.812047
                kinetic =    1.580868
    potential(screened) =   -2.392915
       potential(ionic) =   -6.200698

SPLIT: Orbitals with angular momentum L= 1

SPLIT: Basis orbitals for state 2p

SPLIT: PAO cut-off radius determined from an
SPLIT: energy shift=  0.000735 Ry
Split based on tail norm

   izeta = 1
                 lambda =    1.000000
                     rc =    7.564822
                 energy =   -0.387582
                kinetic =    2.372253
    potential(screened) =   -2.759835
       potential(ionic) =   -6.120604

   izeta = 2
                 rmatch =    4.252389
              splitnorm =    0.150000
                 energy =   -0.314961
                kinetic =    3.225377
    potential(screened) =   -3.540338
       potential(ionic) =   -7.207912
*Note: V_local used for l= 2

** Using vlocal for PAOs with L= 2

POLgen: Perturbative polarization orbital with L=  2

POLgen: Polarization orbital for state 2p
*Note: V_local used for lpol= 2

** Using vlocal for PAOs with L= 2
Split based on tail norm

   izeta = 1
                     rc =    7.564822
                 energy =    0.923681
                kinetic =    1.875515
    potential(screened) =   -0.951834
       potential(ionic) =   -3.587740
atom: Total number of Sankey-type orbitals: 13

atm_pop: Valence configuration (for local Pseudopot. screening):
 2s( 2.00)                                                            
 2p( 2.00)                                                            
 3d( 0.00)                                                            
Vna: chval, zval:    4.00000   4.00000

Vna:  Cut-off radius for the neutral-atom potential:   7.564822
comcore: Pseudo-core radius Rcore=  1.671741

atom: _________________________________________________________________________

<basis_specs>
===============================================================================
N                    Z=   7    Mass=  14.007        Charge= 0.17977+309
Lmxo=2 Lmxkb= 1    BasisType=split      Semic=F
L=0  Nsemic=0  Cnfigmx=2
          i=1  nzeta=2  polorb=0  (2s)
            splnorm:   0.15000    
               vcte:    40.000    
               rinn:  -0.90000    
               qcoe:    0.0000    
               qyuk:    0.0000    
               qwid:   0.10000E-01
                rcs:    0.0000      0.0000    
            lambdas:    1.0000      1.0000    
L=1  Nsemic=0  Cnfigmx=2
          i=1  nzeta=2  polorb=1  (2p)  (to be polarized perturbatively)
            splnorm:   0.15000    
               vcte:    40.000    
               rinn:  -0.90000    
               qcoe:    0.0000    
               qyuk:    0.0000    
               qwid:   0.10000E-01
                rcs:    0.0000      0.0000    
            lambdas:    1.0000      1.0000    
L=2  Nsemic=0  Cnfigmx=3
          i=1  nzeta=0  polorb=0  (3d)  (perturbative polarization orbital) (from 2p)
-------------------------------------------------------------------------------
L=0  Nkbl=1  erefs: 0.17977+309
L=1  Nkbl=1  erefs: 0.17977+309
===============================================================================
</basis_specs>

Using PAO.SplitTailNorm
atom: Called for N                     (Z =   7)
NOTE: N pseudopotential has channels up to l= 1
NOTE: PAOs with higher l will be generated with V_local
Maximum radius (at nrval) set to   50.00000 8518

read_vps: Pseudopotential generation method:
read_vps: ONCVPSP-3.Hamann's oncvpsp                        
Valence charge in pseudo generation:    5.00000

read_vps: Pseudopotential includes a core correction:
read_vps: Pseudo-core for xc-correction

xc_check: Exchange-correlation functional:
xc_check: GGA Perdew, Burke & Ernzerhof 1996
Got Vlocal (oncv-fit) from psml data
Choosing vlocal chloc cutoff:  6.038618
qtot up to nchloc:    4.99995109
atom: Maximum radius for chlocal:    6.03862
atom: Maximum radius for r*vlocal+2*Zval:    6.03862
Reading KB projs from N psml data
Using scalar-relativistic projectors in PSML file

PSML: Kleinman-Bylander projectors: 
   l= 0   rc=  1.214864   Ekb= 14.989018
   l= 0   rc=  1.221004   Ekb=  1.272610
   l= 1   rc=  1.375180   Ekb= -8.587810
   l= 1   rc=  1.375180   Ekb= -2.013976

PSML: Total number of  Kleinman-Bylander projectors:   8
atom: -------------------------------------------------------------------------

atom: SANKEY-TYPE ORBITALS:
atom: Selected multiple-zeta basis: split     

SPLIT: Orbitals with angular momentum L= 0

SPLIT: Basis orbitals for state 2s

SPLIT: PAO cut-off radius determined from an
SPLIT: energy shift=  0.000735 Ry
Split based on tail norm

   izeta = 1
                 lambda =    1.000000
                     rc =    5.128853
                 energy =   -1.364951
                kinetic =    1.219328
    potential(screened) =   -2.584278
       potential(ionic) =   -8.061064

   izeta = 2
                 rmatch =    2.799004
              splitnorm =    0.150000
                 energy =   -1.108465
                kinetic =    2.068776
    potential(screened) =   -3.177241
       potential(ionic) =   -9.112461

SPLIT: Orbitals with angular momentum L= 1

SPLIT: Basis orbitals for state 2p

SPLIT: PAO cut-off radius determined from an
SPLIT: energy shift=  0.000735 Ry
Split based on tail norm

   izeta = 1
                 lambda =    1.000000
                     rc =    6.614864
                 energy =   -0.520217
                kinetic =    3.392575
    potential(screened) =   -3.912792
       potential(ionic) =   -9.170860

   izeta = 2
                 rmatch =    3.582433
              splitnorm =    0.150000
                 energy =   -0.423250
                kinetic =    4.550527
    potential(screened) =   -4.973778
       potential(ionic) =  -10.717060
*Note: V_local used for l= 2

** Using vlocal for PAOs with L= 2

POLgen: Perturbative polarization orbital with L=  2

POLgen: Polarization orbital for state 2p
*Note: V_local used for lpol= 2

** Using vlocal for PAOs with L= 2
Split based on tail norm

   izeta = 1
                     rc =    6.614864
                 energy =    1.365983
                kinetic =    2.607373
    potential(screened) =   -1.241390
       potential(ionic) =   -5.257349
atom: Total number of Sankey-type orbitals: 13

atm_pop: Valence configuration (for local Pseudopot. screening):
 2s( 2.00)                                                            
 2p( 3.00)                                                            
 3d( 0.00)                                                            
Vna: chval, zval:    5.00000   5.00000

Vna:  Cut-off radius for the neutral-atom potential:   6.614864
comcore: Pseudo-core radius Rcore=  1.572221

atom: _________________________________________________________________________

<basis_specs>
===============================================================================
H                    Z=   1    Mass=  1.0080        Charge= 0.17977+309
Lmxo=1 Lmxkb= 1    BasisType=split      Semic=F
L=0  Nsemic=0  Cnfigmx=1
          i=1  nzeta=2  polorb=1  (1s)  (to be polarized perturbatively)
            splnorm:   0.15000    
               vcte:    40.000    
               rinn:  -0.90000    
               qcoe:    0.0000    
               qyuk:    0.0000    
               qwid:   0.10000E-01
                rcs:    0.0000      0.0000    
            lambdas:    1.0000      1.0000    
L=1  Nsemic=0  Cnfigmx=2
          i=1  nzeta=0  polorb=0  (2p)  (perturbative polarization orbital) (from 1s)
-------------------------------------------------------------------------------
L=0  Nkbl=1  erefs: 0.17977+309
L=1  Nkbl=1  erefs: 0.17977+309
===============================================================================
</basis_specs>

Using PAO.SplitTailNorm
atom: Called for H                     (Z =   1)
Maximum radius (at nrval) set to   50.00000 8518

read_vps: Pseudopotential generation method:
read_vps: ONCVPSP-3.Hamann's oncvpsp                        
Valence charge in pseudo generation:    1.00000

xc_check: Exchange-correlation functional:
xc_check: GGA Perdew, Burke & Ernzerhof 1996
Got Vlocal (oncv-fit) from psml data
Choosing vlocal chloc cutoff:  1.926399
qtot up to nchloc:    0.99999831
atom: Maximum radius for chlocal:    1.92640
atom: Maximum radius for r*vlocal+2*Zval:    1.92640
Reading KB projs from H psml data
Using scalar-relativistic projectors in PSML file

PSML: Kleinman-Bylander projectors: 
   l= 0   rc=  1.022342   Ekb= -3.402247
   l= 0   rc=  1.022342   Ekb= -1.068968
   l= 1   rc=  0.714575   Ekb= -1.006642

PSML: Total number of  Kleinman-Bylander projectors:   5
atom: -------------------------------------------------------------------------

atom: SANKEY-TYPE ORBITALS:
atom: Selected multiple-zeta basis: split     

SPLIT: Orbitals with angular momentum L= 0

SPLIT: Basis orbitals for state 1s

SPLIT: PAO cut-off radius determined from an
SPLIT: energy shift=  0.000735 Ry
Split based on tail norm

   izeta = 1
                 lambda =    1.000000
                     rc =    7.238756
                 energy =   -0.476315
                kinetic =    0.887622
    potential(screened) =   -1.363936
       potential(ionic) =   -1.882865

   izeta = 2
                 rmatch =    4.044510
              splitnorm =    0.150000
                 energy =   -0.376652
                kinetic =    1.480380
    potential(screened) =   -1.857033
       potential(ionic) =   -2.405174

POLgen: Perturbative polarization orbital with L=  1

POLgen: Polarization orbital for state 1s
Split based on tail norm

   izeta = 1
                     rc =    7.238756
                 energy =    0.508786
                kinetic =    1.081322
    potential(screened) =   -0.572537
       potential(ionic) =   -1.035092
atom: Total number of Sankey-type orbitals:  5

atm_pop: Valence configuration (for local Pseudopot. screening):
 1s( 1.00)                                                            
 2p( 0.00)                                                            
Vna: chval, zval:    1.00000   1.00000

Vna:  Cut-off radius for the neutral-atom potential:   7.238756

atom: _________________________________________________________________________

prinput: Basis input 

PAO.BasisType split     

%block ChemicalSpeciesLabel
    1    8 O                       # Species index, atomic number, species label
    2    6 C                       # Species index, atomic number, species label
    3    7 N                       # Species index, atomic number, species label
    4    1 H                       # Species index, atomic number, species label
%endblock ChemicalSpeciesLabel

%block PAO.Basis                 # Define Basis set
# WARNING: This information might be incomplete!
O                     2                    # Species label, number of l-shells
 n=2   0   2                         # n, l, Nzeta 
   4.566      2.434   
   1.000      1.000   
 n=2   1   2 P   1                   # n, l, Nzeta, Polarization, NzetaPol
   5.913      3.104   
   1.000      1.000   
C                     2                    # Species label, number of l-shells
 n=2   0   2                         # n, l, Nzeta 
   5.866      3.303   
   1.000      1.000   
 n=2   1   2 P   1                   # n, l, Nzeta, Polarization, NzetaPol
   7.565      4.252   
   1.000      1.000   
N                     2                    # Species label, number of l-shells
 n=2   0   2                         # n, l, Nzeta 
   5.129      2.799   
   1.000      1.000   
 n=2   1   2 P   1                   # n, l, Nzeta, Polarization, NzetaPol
   6.615      3.582   
   1.000      1.000   
H                     1                    # Species label, number of l-shells
 n=1   0   2 P   1                   # n, l, Nzeta, Polarization, NzetaPol
   7.239      4.045   
   1.000      1.000   
%endblock PAO.Basis

prinput: ----------------------------------------------------------------------

Dumping basis to NetCDF file O.ion.nc
Dumping basis to NetCDF file C.ion.nc
Dumping basis to NetCDF file N.ion.nc
Dumping basis to NetCDF file H.ion.nc
coor:   Atomic-coordinates input format  =     Cartesian coordinates
coor:                                          (in Angstroms)

siesta: Atomic coordinates (Bohr) and species
siesta:     -4.13094 -34.36467  29.93893  1        1
siesta:     -1.48344 -34.72372  29.41548  2        2
siesta:     -1.33037 -35.95015  26.59412  2        3
siesta:     -2.56625 -33.97917  25.04076  1        4
siesta:     -5.00211 -34.47806  24.05999  2        5
siesta:     -6.10948 -36.44904  24.36235  1        6
siesta:     -5.99799 -32.39935  22.61246  2        7
siesta:     -8.60959 -31.83243  23.32111  2        8
siesta:     -9.78122 -29.69705  21.88681  2        9
siesta:     -8.41684 -28.36101  19.99330  2       10
siesta:     -6.18318 -29.01108  19.54733  2       11
siesta:     -4.79424 -30.98395  20.72652  2       12
siesta:      1.42296 -36.50951  25.36768  2       13
siesta:      1.70831 -35.63457  22.46506  2       14
siesta:      1.44186 -32.85289  22.15893  1       15
siesta:      3.20875 -31.18426  23.08300  2       16
siesta:      5.08525 -31.75118  24.20361  1       17
siesta:      2.40562 -28.51408  22.44428  2       18
siesta:     -0.16441 -36.63990  20.44495  2       19
siesta:      1.83492 -37.70193  18.91238  1       20
siesta:      3.71709 -36.82887  20.68305  2       21
siesta:      5.37816 -39.04363  21.72240  2       22
siesta:      5.27234 -39.34221  24.58345  2       23
siesta:      6.80490 -41.49272  25.32611  1       24
siesta:      2.44720 -39.51040  25.67004  2       25
siesta:      0.91652 -41.46626  24.08645  2       26
siesta:      2.48310 -40.75761  28.46872  2       27
siesta:      1.47021 -42.80418  28.78809  1       28
siesta:      3.71331 -39.43669  30.73639  2       29
siesta:      3.35237 -41.09020  32.99084  1       30
siesta:      5.40462 -42.25238  34.10389  2       31
siesta:      7.54190 -42.05585  33.41792  1       32
siesta:      4.57314 -43.82464  36.32053  2       33
siesta:      2.54924 -36.81942  31.13513  2       34
siesta:      4.04590 -34.67836  30.84033  2       35
siesta:      2.65129 -32.08566  30.97450  2       36
siesta:      4.12338 -29.94838  29.98239  1       37
siesta:      5.47832 -28.60667  31.60945  2       38
siesta:      5.67296 -28.93171  33.82988  1       39
siesta:      6.84081 -26.41270  30.22239  2       40
siesta:      8.18818 -24.99541  32.04598  1       41
siesta:      4.82447 -24.82533  28.81265  2       42
siesta:      2.88939 -24.16015  30.65892  3       43
siesta:      0.45920 -23.68016  30.02019  2       44
siesta:     -0.31369 -23.73118  27.83756  1       45
siesta:     -1.21509 -23.13781  32.21794  2       46
siesta:     -0.85605 -21.12147  33.87334  2       47
siesta:     -2.51334 -20.71896  35.94826  2       48
siesta:     -4.56936 -22.40459  36.34510  2       49
siesta:     -4.93974 -24.41337  34.71049  2       50
siesta:     -3.31836 -24.82533  32.66392  2       51
siesta:      6.02634 -22.53876  27.45772  2       52
siesta:      6.77467 -22.84301  24.92927  2       53
siesta:      7.90472 -20.81722  23.58000  2       54
siesta:      8.27322 -18.47774  24.78376  2       55
siesta:      7.53434 -18.16783  27.27253  2       56
siesta:      6.40239 -20.19172  28.63880  2       57
siesta:      0.10582 -32.14235  29.42493  2       58
siesta:      6.86160 -34.63679  30.22806  2       59
siesta:     -0.41763 -36.55297  31.72472  2       60
siesta:     -0.75967 -35.31898  34.45538  2       61
siesta:     -2.03146 -38.98127  31.91747  2       62
siesta:     -4.76400 -32.89446  28.93360  4       63
siesta:     -0.46298 -34.27207  26.62057  4       64
siesta:     -6.98254 -31.01229  21.78854  4       65
siesta:     -9.63571 -33.39335  23.03576  4       66
siesta:     -8.62849 -31.41103  25.16359  4       67
siesta:    -11.55756 -29.13769  22.20806  4       68
siesta:     -9.04612 -26.92104  18.94450  4       69
siesta:     -5.47643 -27.90559  18.18861  4       70
siesta:     -3.00844 -31.36757  20.23897  4       71
siesta:      0.34582 -37.67736  24.34345  4       72
siesta:      3.08970 -28.05676  20.74352  4       73
siesta:      0.51778 -28.42715  22.42538  4       74
siesta:      3.09159 -27.33489  23.75197  4       75
siesta:     -1.37005 -37.95137  21.07612  4       76
siesta:     -1.13762 -35.29630  19.53977  4       77
siesta:      2.36216 -37.97972  21.32178  4       78
siesta:      4.79612 -40.66691  20.94950  4       79
siesta:      7.17907 -38.74317  21.23863  4       80
siesta:      4.39550 -40.83320  23.82189  4       81
siesta:      8.49432 -41.36422  24.48707  4       82
siesta:      0.32692 -40.64045  22.49152  4       83
siesta:      2.03335 -42.93458  23.67638  4       84
siesta:     -0.56881 -42.04829  25.09745  4       85
siesta:      1.85760 -39.67669  30.99529  4       86
siesta:      3.05191 -43.02339  37.10666  4       87
siesta:      4.14606 -45.56319  35.71582  4       88
siesta:      5.98098 -43.90779  37.57909  4       89
siesta:      2.87238 -32.43904  29.13202  4       90
siesta:      5.48587 -25.87224  31.42426  4       91
siesta:      8.48109 -23.25308  31.37701  4       92
siesta:      5.73343 -23.85968  30.15814  4       93
siesta:      3.44497 -22.59168  31.55276  4       94
siesta:      0.60093 -19.95551  33.57098  4       95
siesta:     -2.23555 -19.26198  37.11989  4       96
siesta:     -5.76744 -22.17405  37.78885  4       97
siesta:     -6.39483 -25.58122  35.01096  4       98
siesta:     -3.65851 -26.30310  31.53764  4       99
siesta:      6.50066 -24.51164  24.08456  4      100
siesta:      8.44141 -21.03832  21.78098  4      101
siesta:      9.06502 -17.02832  23.86535  4      102
siesta:      7.81780 -16.48408  28.08322  4      103
siesta:      5.86949 -19.96307  30.43782  4      104
siesta:      0.53857 -31.72094  27.63347  4      105
siesta:     -1.00155 -30.78175  30.12790  4      106
siesta:      7.19230 -33.28941  28.94494  4      107
siesta:      7.82914 -34.27207  31.80976  4      108
siesta:      7.36615 -36.32243  29.53831  4      109
siesta:     -0.80124 -33.43870  34.27963  4      110
siesta:     -2.38105 -35.93314  35.20938  4      111
siesta:      0.69353 -35.83110  35.54953  4      112
siesta:     -3.21064 -39.05497  30.44160  4      113
siesta:     -0.88628 -40.48360  31.90236  4      114
siesta:     -3.01789 -38.93781  33.52941  4      115

siesta: System type = molecule  

initatomlists: Number of atoms, orbitals, and projectors:    115  1071   831

coxmol: Writing XMOL coordinates into file optimization.xyz                                                                                                                                                                                                                    

siesta: ******************** Simulation parameters ****************************
siesta:
siesta: The following are some of the parameters of the simulation.
siesta: A complete list of the parameters used, including default values,
siesta: can be found in file out.fdf
siesta:
redata: Spin configuration                          = none
redata: Number of spin components                   = 1
redata: Time-Reversal Symmetry                      = T
redata: Spin spiral                                 = F
redata: Long output                                 =   F
redata: Number of Atomic Species                    =        4
redata: Charge density info will appear in .RHO file
redata: Write Mulliken charges (when)               = none
redata: Write Mulliken Pop.                         = NO
redata: Write Hirshfeld charges (when)              = none
redata: Write Voronoi charges (when)                = none
redata: Write spin charge (when)                    = none
redata: Matel table size (NRTAB)                    =     1024
redata: Mesh Cutoff                                 =   300.0000 Ry
redata: Net charge of the system                    =     0.0000 |e|
redata: Min. number of SCF Iter                     =        0
redata: Max. number of SCF Iter                     =     1000
redata: SCF convergence failure will abort job
redata: SCF mix quantity                            = Hamiltonian
redata: Mix DM or H after convergence               =   F
redata: Recompute H after scf cycle                 =   F
redata: Mix DM in first SCF step                    =   T
redata: Write Pulay info on disk                    =   F
redata: New DM Occupancy tolerance                  = 0.000000000001
redata: No kicks to SCF
redata: DM Mixing Weight for Kicks                  =     0.5000
redata: Require Harris convergence for SCF          =   F
redata: Harris energy tolerance for SCF             =     0.000100 eV
redata: Require DM convergence for SCF              =   T
redata: DM tolerance for SCF                        =     0.000100
redata: Require EDM convergence for SCF             =   F
redata: EDM tolerance for SCF                       =     0.001000 eV
redata: Require H convergence for SCF               =   T
redata: Hamiltonian tolerance for SCF               =     0.001000 eV
redata: Require (free) Energy convergence for SCF   =   F
redata: (free) Energy tolerance for SCF             =     0.000100 eV
redata: Using DFT-D3 dispersion                     =   F
redata: Using Saved Data (generic)                  =   F
redata: Use continuation files for DM               =   T
redata: Neglect nonoverlap interactions             =   F
redata: Method of Calculation                       = Diagonalization
redata: Electronic Temperature                      =   300.0000 K
redata: Fix the spin of the system                  =   F
redata: Max. number of TDED Iter                    =        1
redata: Number of TDED substeps                     =        3
redata: Dynamics option                             = CG coord. optimization
redata: Variable cell                               =   F
redata: Use continuation files for CG               =   F
redata: Max atomic displ per move                   =     0.1058 Ang
redata: Maximum number of optimization moves        =       10
redata: Force tolerance                             =     0.0050 eV/Ang
mix.SCF: Pulay mixing                            = Pulay
mix.SCF:    Variant                              = stable
mix.SCF:    History steps                        = 2
mix.SCF:    Linear mixing weight                 =     0.250000
mix.SCF:    Mixing weight                        =     0.250000
mix.SCF:    SVD condition                        = 0.1000E-07
redata: Save all siesta data in one NC              =   F
redata: ***********************************************************************

%block SCF.Mixers
  Pulay
%endblock SCF.Mixers

%block SCF.Mixer.Pulay
  # Mixing method
  method pulay
  variant stable

  # Mixing options
  weight 0.2500
  weight.linear 0.2500
  history 2
%endblock SCF.Mixer.Pulay

DM_history_depth set to one: no extrapolation allowed by default for geometry relaxation
Size of DM history Fstack: 1
Total number of electrons:   330.000000
Total ionic charge:   330.000000

siesta: k-grid: Number of k-points = 1
siesta: k-point is Gamma-only

diag: Algorithm                                     = D&C
diag: Used triangular part                          = Lower
diag: Absolute tolerance                            =  0.100E-15
diag: Orthogonalization factor                      =  0.100E-05
diag: Memory factor                                 =  1.0000


ts: **************************************************************
ts: Save H and S matrices                           =    F
ts: Save TSHS files in MD/FC simulation             =    F
ts: Save DM and EDM matrices                        =    F
ts: Only save the overlap matrix S                  =    F
ts: **************************************************************

************************ Begin: TS CHECKS AND WARNINGS ************************
************************ End: TS CHECKS AND WARNINGS **************************


                     ====================================
                        Begin CG opt. move =      0
                     ====================================

outcell: Unit cell vectors (Ang):
       20.913000    0.000000    0.000000
        0.000000   25.388000    0.000000
        0.000000    0.000000   20.372000

outcell: Cell vector modules (Ang)   :   20.913000   25.388000   20.372000
outcell: Cell angles (23,13,12) (deg):     90.0000     90.0000     90.0000
outcell: Cell volume (Ang**3)        :  10816.2943
<dSpData1D:S at geom step 0
  <sparsity:sparsity for geom step 0
    nrows_g=1071 nrows=1071 sparsity=.5140 nnzs=589537, refcount: 7>
  <dData1D:(new from dSpData1D) n=589537, refcount: 1>
refcount: 1>
new_DM -- step:     1
Initializing Density Matrix...

Attempting to read DM from file... Failed...
DM filled with atomic data:
<dSpData2D:DM initialized from atoms
  <sparsity:sparsity for geom step 0
    nrows_g=1071 nrows=1071 sparsity=.5140 nnzs=589537, refcount: 8>
  <dData2D:DM n=589537 m=1, refcount: 1>
refcount: 1>
No. of atoms with KB's overlaping orbs in proc 0. Max # of overlaps:     115     359

InitMesh: MESH = 240 x 270 x 216 = 13996800
InitMesh: Mesh cutoff (required, used) =   300.000   310.701 Ry
New grid distribution [1]: sub = 2

stepf: Fermi-Dirac step function

siesta: Program's energy decomposition (eV):
siesta: Ebs     =     -3784.274551
siesta: Eions   =     24532.715556
siesta: Ena     =      5785.664468
siesta: Ekin    =     11118.487956
siesta: Enl     =     -1518.930476
siesta: Eso     =         0.000000
siesta: Edftu   =         0.000000
siesta: DEna    =      -912.312348
siesta: DUscf   =       133.903304
siesta: DUext   =         0.000000
siesta: Ex      =     -4679.686111
siesta: Ec      =      -389.786140
siesta: Exc     =     -5069.472252
siesta: EbV     =         0.000000
siesta: eta*DQ  =         0.000000
siesta: Emadel  =         0.000000
siesta: Emeta   =         0.000000
siesta: Emolmec =         0.000000
siesta: Ekinion =         0.000000
siesta: Eharris =    -14768.646180
siesta: Etot    =    -14995.374902
siesta: FreeEng =    -14995.374902

        iscf     Eharris(eV)        E_KS(eV)     FreeEng(eV)     dDmax    Ef(eV) dHmax(eV)
   scf:    1   -14768.646180   -14995.374902   -14995.374902  2.987073 -7.333388 12.186912
timer: Routine,Calls,Time,% = IterSCF        1      16.865  35.36
   scf:    2   -15051.807648   -15029.335894   -15029.335894  0.297661 -5.704854  6.441548
   scf:    3   -15040.799931   -15037.754563   -15037.754563  0.301693 -3.950620  4.142507
   scf:    4   -15038.019987   -15038.545397   -15038.545397  0.066183 -3.755479  1.685634
   scf:    5   -15038.810680   -15038.794289   -15038.794289  0.036698 -3.771744  0.708324
   scf:    6   -15038.879471   -15038.846882   -15038.846882  0.019721 -3.726916  0.410413
   scf:    7   -15038.880278   -15038.874015   -15038.874015  0.021629 -3.649918  0.438970
   scf:    8   -15038.875485   -15038.883275   -15038.883275  0.008731 -3.633181  0.214000
   scf:    9   -15038.887604   -15038.887422   -15038.887422  0.005242 -3.620591  0.098090
   scf:   10   -15038.888939   -15038.888451   -15038.888451  0.003380 -3.610827  0.073623
   scf:   11   -15038.889008   -15038.889115   -15038.889115  0.003394 -3.596439  0.077860
   scf:   12   -15038.889151   -15038.889396   -15038.889396  0.001284 -3.593873  0.038052
   scf:   13   -15038.889556   -15038.889524   -15038.889524  0.000864 -3.591510  0.016023
   scf:   14   -15038.889582   -15038.889560   -15038.889560  0.000703 -3.589237  0.014666
   scf:   15   -15038.889575   -15038.889585   -15038.889585  0.000805 -3.585775  0.015765
   scf:   16   -15038.889584   -15038.889595   -15038.889595  0.000286 -3.585683  0.006608
   scf:   17   -15038.889601   -15038.889599   -15038.889599  0.000135 -3.585253  0.002546
   scf:   18   -15038.889601   -15038.889600   -15038.889600  0.000150 -3.584769  0.002400
   scf:   19   -15038.889601   -15038.889601   -15038.889601  0.000206 -3.583993  0.002176
   scf:   20   -15038.889601   -15038.889601   -15038.889601  0.000053 -3.584116  0.000702

SCF Convergence by DM+H criterion
max |DM_out - DM_in|         :     0.0000527850
max |H_out - H_in|      (eV) :     0.0007019419
SCF cycle converged after 20 iterations

Using DM_out to compute the final energy and forces
No. of atoms with KB's overlaping orbs in proc 0. Max # of overlaps:     115     359

siesta: E_KS(eV) =           -15038.8896

siesta: E_KS - E_eggbox =    -15038.8896

siesta: Atomic forces (eV/Ang):
----------------------------------------
   Tot   -0.005611   -0.015425    0.016245
----------------------------------------
   Max   10.213518
   Res    2.860438    sqrt( Sum f_i^2 / 3N )
----------------------------------------
   Max   10.213518    constrained

Stress tensor Voigt[x,y,z,yz,xz,xy] (kbar):      -22.58      -19.02      -19.09       -1.54        0.74        0.11
(Free)E + p*V (eV/cell)   -14902.3157
Target enthalpy (eV/cell)   -15038.8896

                     ====================================
                        Begin CG opt. move =      1
                     ====================================

outcell: Unit cell vectors (Ang):
       20.913000    0.000000    0.000000
        0.000000   25.388000    0.000000
        0.000000    0.000000   20.372000

outcell: Cell vector modules (Ang)   :   20.913000   25.388000   20.372000
outcell: Cell angles (23,13,12) (deg):     90.0000     90.0000     90.0000
outcell: Cell volume (Ang**3)        :  10816.2943
<dSpData1D:S at geom step 1
  <sparsity:sparsity for geom step 1
    nrows_g=1071 nrows=1071 sparsity=.5144 nnzs=589999, refcount: 7>
  <dData1D:(new from dSpData1D) n=589999, refcount: 1>
refcount: 1>
new_DM -- step:     2
Re-using DM from previous geometries...
Number of DMs in history: 1
 DM extrapolation coefficients: 
1   1.00000
New DM after history re-use:
<dSpData2D:SpM extrapolated using coords
  <sparsity:sparsity for geom step 1
    nrows_g=1071 nrows=1071 sparsity=.5144 nnzs=589999, refcount: 9>
  <dData2D:(temp array for extrapolation) n=589999 m=1, refcount: 1>
refcount: 1>
No. of atoms with KB's overlaping orbs in proc 0. Max # of overlaps:     115     358

InitMesh: MESH = 240 x 270 x 216 = 13996800
InitMesh: Mesh cutoff (required, used) =   300.000   310.701 Ry
New grid distribution [1]: sub = 2

        iscf     Eharris(eV)        E_KS(eV)     FreeEng(eV)     dDmax    Ef(eV) dHmax(eV)
   scf:    1   -15046.891482   -15043.816483   -15043.816483  0.400291 -3.507040  1.038487
   scf:    2   -15040.482364   -15042.844578   -15042.844578  0.092839 -3.503295  3.684345
   scf:    3   -15044.132818   -15043.918161   -15043.918161  0.071045 -3.522001  0.084938
   scf:    4   -15043.920226   -15043.919315   -15043.919315  0.001705 -3.527552  0.043928
   scf:    5   -15043.919861   -15043.919648   -15043.919648  0.001393 -3.531318  0.011951
   scf:    6   -15043.919694   -15043.919674   -15043.919674  0.000279 -3.532095  0.007348
   scf:    7   -15043.919687   -15043.919682   -15043.919682  0.000199 -3.532215  0.002867
   scf:    8   -15043.919685   -15043.919684   -15043.919684  0.000091 -3.532433  0.001859
   scf:    9   -15043.919684   -15043.919684   -15043.919684  0.000050 -3.532449  0.000948

SCF Convergence by DM+H criterion
max |DM_out - DM_in|         :     0.0000503093
max |H_out - H_in|      (eV) :     0.0009483488
SCF cycle converged after 9 iterations

Using DM_out to compute the final energy and forces
No. of atoms with KB's overlaping orbs in proc 0. Max # of overlaps:     115     358

siesta: E_KS(eV) =           -15043.9197

siesta: Atomic forces (eV/Ang):
----------------------------------------
   Tot   -0.005951   -0.012113    0.010905
----------------------------------------
   Max    6.578931
   Res    2.281734    sqrt( Sum f_i^2 / 3N )
----------------------------------------
   Max    6.578931    constrained

Stress tensor Voigt[x,y,z,yz,xz,xy] (kbar):      -20.21      -17.40      -17.20       -1.11        0.74        0.12
(Free)E + p*V (eV/cell)   -14920.5728
Target enthalpy (eV/cell)   -15043.9197

                     ====================================
                        Begin CG opt. move =      2
                     ====================================

outcell: Unit cell vectors (Ang):
       20.913000    0.000000    0.000000
        0.000000   25.388000    0.000000
        0.000000    0.000000   20.372000

outcell: Cell vector modules (Ang)   :   20.913000   25.388000   20.372000
outcell: Cell angles (23,13,12) (deg):     90.0000     90.0000     90.0000
outcell: Cell volume (Ang**3)        :  10816.2943
<dSpData1D:S at geom step 2
  <sparsity:sparsity for geom step 2
    nrows_g=1071 nrows=1071 sparsity=.5150 nnzs=590723, refcount: 7>
  <dData1D:(new from dSpData1D) n=590723, refcount: 1>
refcount: 1>
new_DM -- step:     3
Re-using DM from previous geometries...
Number of DMs in history: 1
 DM extrapolation coefficients: 
1   1.00000
New DM after history re-use:
<dSpData2D:SpM extrapolated using coords
  <sparsity:sparsity for geom step 2
    nrows_g=1071 nrows=1071 sparsity=.5150 nnzs=590723, refcount: 9>
  <dData2D:(temp array for extrapolation) n=590723 m=1, refcount: 1>
refcount: 1>
No. of atoms with KB's overlaping orbs in proc 0. Max # of overlaps:     115     366

InitMesh: MESH = 240 x 270 x 216 = 13996800
InitMesh: Mesh cutoff (required, used) =   300.000   310.701 Ry
New grid distribution [1]: sub = 2

        iscf     Eharris(eV)        E_KS(eV)     FreeEng(eV)     dDmax    Ef(eV) dHmax(eV)
   scf:    1   -15053.777395   -15049.441904   -15049.441904  0.540763 -3.312308  1.288980
   scf:    2   -15043.897248   -15047.865686   -15047.865686  0.115486 -3.558137  4.442353
   scf:    3   -15050.049083   -15049.663539   -15049.663539  0.090129 -3.397027  0.118105
   scf:    4   -15049.667812   -15049.665981   -15049.665981  0.002761 -3.409754  0.050359
   scf:    5   -15049.666988   -15049.666562   -15049.666562  0.001625 -3.417333  0.017775
   scf:    6   -15049.666692   -15049.666632   -15049.666632  0.000594 -3.418947  0.008416
   scf:    7   -15049.666663   -15049.666649   -15049.666649  0.000324 -3.419274  0.002433
   scf:    8   -15049.666653   -15049.666652   -15049.666652  0.000131 -3.419172  0.001015
   scf:    9   -15049.666653   -15049.666652   -15049.666652  0.000053 -3.419062  0.000682

SCF Convergence by DM+H criterion
max |DM_out - DM_in|         :     0.0000525235
max |H_out - H_in|      (eV) :     0.0006818042
SCF cycle converged after 9 iterations

Using DM_out to compute the final energy and forces
No. of atoms with KB's overlaping orbs in proc 0. Max # of overlaps:     115     366

siesta: E_KS(eV) =           -15049.6667

siesta: Atomic forces (eV/Ang):
----------------------------------------
   Tot    0.000810   -0.006031    0.000458
----------------------------------------
   Max    4.827484
   Res    1.556846    sqrt( Sum f_i^2 / 3N )
----------------------------------------
   Max    4.827484    constrained

Stress tensor Voigt[x,y,z,yz,xz,xy] (kbar):      -16.96      -15.24      -14.59       -0.39        0.80        0.13
(Free)E + p*V (eV/cell)   -14944.3566
Target enthalpy (eV/cell)   -15049.6667

                     ====================================
                        Begin CG opt. move =      3
                     ====================================

outcell: Unit cell vectors (Ang):
       20.913000    0.000000    0.000000
        0.000000   25.388000    0.000000
        0.000000    0.000000   20.372000

outcell: Cell vector modules (Ang)   :   20.913000   25.388000   20.372000
outcell: Cell angles (23,13,12) (deg):     90.0000     90.0000     90.0000
outcell: Cell volume (Ang**3)        :  10816.2943
<dSpData1D:S at geom step 3
  <sparsity:sparsity for geom step 3
    nrows_g=1071 nrows=1071 sparsity=.5150 nnzs=590773, refcount: 7>
  <dData1D:(new from dSpData1D) n=590773, refcount: 1>
refcount: 1>
new_DM -- step:     4
Re-using DM from previous geometries...
Number of DMs in history: 1
 DM extrapolation coefficients: 
1   1.00000
New DM after history re-use:
<dSpData2D:SpM extrapolated using coords
  <sparsity:sparsity for geom step 3
    nrows_g=1071 nrows=1071 sparsity=.5150 nnzs=590773, refcount: 9>
  <dData2D:(temp array for extrapolation) n=590773 m=1, refcount: 1>
refcount: 1>
Note: For starting DM, Qtot, Tr[D*S] =        330.00000000        329.47310964
No. of atoms with KB's overlaping orbs in proc 0. Max # of overlaps:     115     366

InitMesh: MESH = 240 x 270 x 216 = 13996800
InitMesh: Mesh cutoff (required, used) =   300.000   310.701 Ry
New grid distribution [1]: sub = 2

        iscf     Eharris(eV)        E_KS(eV)     FreeEng(eV)     dDmax    Ef(eV) dHmax(eV)
   scf:    1   -15058.539774   -15053.145447   -15053.145447  0.649875 -3.619133  1.613071
   scf:    2   -15043.377908   -15050.457722   -15050.457722  0.111363 -3.612394  4.813193
   scf:    3   -15054.397590   -15053.659059   -15053.659059  0.089959 -3.819385  0.152189
   scf:    4   -15053.667825   -15053.664268   -15053.664268  0.004240 -3.842693  0.055730
   scf:    5   -15053.666169   -15053.665320   -15053.665320  0.001898 -3.852810  0.026490
   scf:    6   -15053.665715   -15053.665538   -15053.665538  0.001213 -3.856670  0.009634
   scf:    7   -15053.665597   -15053.665569   -15053.665569  0.000423 -3.857185  0.003513
   scf:    8   -15053.665581   -15053.665576   -15053.665576  0.000251 -3.857304  0.001229
   scf:    9   -15053.665578   -15053.665577   -15053.665577  0.000067 -3.857254  0.000753

SCF Convergence by DM+H criterion
max |DM_out - DM_in|         :     0.0000665573
max |H_out - H_in|      (eV) :     0.0007533979
SCF cycle converged after 9 iterations

Using DM_out to compute the final energy and forces
No. of atoms with KB's overlaping orbs in proc 0. Max # of overlaps:     115     366

siesta: E_KS(eV) =           -15053.6656

siesta: Atomic forces (eV/Ang):
----------------------------------------
   Tot   -0.000279    0.007756    0.001582
----------------------------------------
   Max    5.614070
   Res    1.297905    sqrt( Sum f_i^2 / 3N )
----------------------------------------
   Max    5.614070    constrained

Stress tensor Voigt[x,y,z,yz,xz,xy] (kbar):      -12.99      -12.81      -11.42        0.87        1.07        0.09
(Free)E + p*V (eV/cell)   -14969.8875
Target enthalpy (eV/cell)   -15053.6656

                     ====================================
                        Begin CG opt. move =      4
                     ====================================

outcell: Unit cell vectors (Ang):
       20.913000    0.000000    0.000000
        0.000000   25.388000    0.000000
        0.000000    0.000000   20.372000

outcell: Cell vector modules (Ang)   :   20.913000   25.388000   20.372000
outcell: Cell angles (23,13,12) (deg):     90.0000     90.0000     90.0000
outcell: Cell volume (Ang**3)        :  10816.2943
<dSpData1D:S at geom step 4
  <sparsity:sparsity for geom step 4
    nrows_g=1071 nrows=1071 sparsity=.5152 nnzs=590907, refcount: 7>
  <dData1D:(new from dSpData1D) n=590907, refcount: 1>
refcount: 1>
new_DM -- step:     5
Re-using DM from previous geometries...
Number of DMs in history: 1
 DM extrapolation coefficients: 
1   1.00000
New DM after history re-use:
<dSpData2D:SpM extrapolated using coords
  <sparsity:sparsity for geom step 4
    nrows_g=1071 nrows=1071 sparsity=.5152 nnzs=590907, refcount: 9>
  <dData2D:(temp array for extrapolation) n=590907 m=1, refcount: 1>
refcount: 1>
Note: For starting DM, Qtot, Tr[D*S] =        330.00000000        328.82045295
No. of atoms with KB's overlaping orbs in proc 0. Max # of overlaps:     115     366

InitMesh: MESH = 240 x 270 x 216 = 13996800
InitMesh: Mesh cutoff (required, used) =   300.000   310.701 Ry
New grid distribution [1]: sub = 2

        iscf     Eharris(eV)        E_KS(eV)     FreeEng(eV)     dDmax    Ef(eV) dHmax(eV)
   scf:    1   -15051.228792   -15047.113624   -15047.113624  0.617156 -3.465159  3.067679
   scf:    2   -15022.527683   -15040.505476   -15040.505477  0.190065 -3.968423  7.363221
   scf:    3   -15050.606008   -15048.615323   -15048.615323  0.142585 -4.039149  0.268909
   scf:    4   -15048.637558   -15048.628841   -15048.628841  0.006170 -3.428344  0.106052
   scf:    5   -15048.633578   -15048.631442   -15048.631442  0.002256 -3.438171  0.050198
   scf:    6   -15048.632634   -15048.632113   -15048.632113  0.001632 -3.443771  0.015775
   scf:    7   -15048.632237   -15048.632179   -15048.632179  0.000486 -3.444751  0.007083
   scf:    8   -15048.632216   -15048.632199   -15048.632199  0.000405 -3.445510  0.002563
   scf:    9   -15048.632205   -15048.632202   -15048.632202  0.000203 -3.445969  0.001011
   scf:   10   -15048.632204   -15048.632203   -15048.632203  0.000121 -3.446271  0.000573
   scf:   11   -15048.632203   -15048.632203   -15048.632203  0.000041 -3.446362  0.000426

SCF Convergence by DM+H criterion
max |DM_out - DM_in|         :     0.0000409225
max |H_out - H_in|      (eV) :     0.0004260695
SCF cycle converged after 11 iterations

Using DM_out to compute the final energy and forces
No. of atoms with KB's overlaping orbs in proc 0. Max # of overlaps:     115     366

siesta: E_KS(eV) =           -15048.6322

siesta: Atomic forces (eV/Ang):
----------------------------------------
   Tot   -0.002341   -0.007681    0.015755
----------------------------------------
   Max   17.545758
   Res    2.931533    sqrt( Sum f_i^2 / 3N )
----------------------------------------
   Max   17.545758    constrained

Stress tensor Voigt[x,y,z,yz,xz,xy] (kbar):       -9.19      -11.46       -8.86        3.45        1.91       -0.24
(Free)E + p*V (eV/cell)   -14982.2121
Target enthalpy (eV/cell)   -15048.6322

                     ====================================
                        Begin CG opt. move =      5
                     ====================================

outcell: Unit cell vectors (Ang):
       20.913000    0.000000    0.000000
        0.000000   25.388000    0.000000
        0.000000    0.000000   20.372000

outcell: Cell vector modules (Ang)   :   20.913000   25.388000   20.372000
outcell: Cell angles (23,13,12) (deg):     90.0000     90.0000     90.0000
outcell: Cell volume (Ang**3)        :  10816.2943
<dSpData1D:S at geom step 5
  <sparsity:sparsity for geom step 5
    nrows_g=1071 nrows=1071 sparsity=.5155 nnzs=591335, refcount: 7>
  <dData1D:(new from dSpData1D) n=591335, refcount: 1>
refcount: 1>
new_DM -- step:     6
Re-using DM from previous geometries...
Number of DMs in history: 1
 DM extrapolation coefficients: 
1   1.00000
New DM after history re-use:
<dSpData2D:SpM extrapolated using coords
  <sparsity:sparsity for geom step 5
    nrows_g=1071 nrows=1071 sparsity=.5155 nnzs=591335, refcount: 9>
  <dData2D:(temp array for extrapolation) n=591335 m=1, refcount: 1>
refcount: 1>
Note: For starting DM, Qtot, Tr[D*S] =        330.00000000        331.04998394
No. of atoms with KB's overlaping orbs in proc 0. Max # of overlaps:     115     366

InitMesh: MESH = 240 x 270 x 216 = 13996800
InitMesh: Mesh cutoff (required, used) =   300.000   310.701 Ry
New grid distribution [1]: sub = 2

        iscf     Eharris(eV)        E_KS(eV)     FreeEng(eV)     dDmax    Ef(eV) dHmax(eV)
   scf:    1   -15044.018954   -15052.718088   -15052.718088  0.515271 -3.710447  2.743107
   scf:    2   -15036.210368   -15048.300560   -15048.300560  0.146454 -3.173548  6.568400
   scf:    3   -15055.141982   -15053.756940   -15053.756940  0.105708 -3.870688  0.194120
   scf:    4   -15053.772171   -15053.765692   -15053.765692  0.004988 -3.826459  0.096703
   scf:    5   -15053.769236   -15053.767686   -15053.767686  0.002395 -3.804270  0.040287
   scf:    6   -15053.768286   -15053.768009   -15053.768009  0.000922 -3.799031  0.017767
   scf:    7   -15053.768152   -15053.768087   -15053.768087  0.000683 -3.796833  0.004367
   scf:    8   -15053.768106   -15053.768097   -15053.768097  0.000293 -3.796353  0.001577
   scf:    9   -15053.768101   -15053.768099   -15053.768099  0.000155 -3.796144  0.000814
   scf:   10   -15053.768101   -15053.768100   -15053.768100  0.000098 -3.795985  0.000501

SCF Convergence by DM+H criterion
max |DM_out - DM_in|         :     0.0000984321
max |H_out - H_in|      (eV) :     0.0005005414
SCF cycle converged after 10 iterations

Using DM_out to compute the final energy and forces
No. of atoms with KB's overlaping orbs in proc 0. Max # of overlaps:     115     366

siesta: E_KS(eV) =           -15053.7681

siesta: Atomic forces (eV/Ang):
----------------------------------------
   Tot   -0.004516    0.005557    0.005714
----------------------------------------
   Max    6.631175
   Res    1.418156    sqrt( Sum f_i^2 / 3N )
----------------------------------------
   Max    6.631175    constrained

Stress tensor Voigt[x,y,z,yz,xz,xy] (kbar):      -12.34      -12.46      -10.92        1.16        1.15        0.07
(Free)E + p*V (eV/cell)   -14973.4015
Target enthalpy (eV/cell)   -15053.7681

cgvc: Finished line minimization    1.  Mean atomic displacement =    0.0939

                     ====================================
                        Begin CG opt. move =      6
                     ====================================

outcell: Unit cell vectors (Ang):
       20.913000    0.000000    0.000000
        0.000000   25.388000    0.000000
        0.000000    0.000000   20.372000

outcell: Cell vector modules (Ang)   :   20.913000   25.388000   20.372000
outcell: Cell angles (23,13,12) (deg):     90.0000     90.0000     90.0000
outcell: Cell volume (Ang**3)        :  10816.2943
<dSpData1D:S at geom step 6
  <sparsity:sparsity for geom step 6
    nrows_g=1071 nrows=1071 sparsity=.5154 nnzs=591239, refcount: 7>
  <dData1D:(new from dSpData1D) n=591239, refcount: 1>
refcount: 1>
new_DM -- step:     7
Re-using DM from previous geometries...
Number of DMs in history: 1
 DM extrapolation coefficients: 
1   1.00000
New DM after history re-use:
<dSpData2D:SpM extrapolated using coords
  <sparsity:sparsity for geom step 6
    nrows_g=1071 nrows=1071 sparsity=.5154 nnzs=591239, refcount: 9>
  <dData2D:(temp array for extrapolation) n=591239 m=1, refcount: 1>
refcount: 1>
Note: For starting DM, Qtot, Tr[D*S] =        330.00000000        329.48734408
No. of atoms with KB's overlaping orbs in proc 0. Max # of overlaps:     115     366

InitMesh: MESH = 240 x 270 x 216 = 13996800
InitMesh: Mesh cutoff (required, used) =   300.000   310.701 Ry
New grid distribution [1]: sub = 2

        iscf     Eharris(eV)        E_KS(eV)     FreeEng(eV)     dDmax    Ef(eV) dHmax(eV)
   scf:    1   -15060.070903   -15055.795266   -15055.795266  0.412408 -3.862225  6.004536
   scf:    2   -14921.456666   -15015.731757   -15015.731881  0.746162 -3.666529 22.899507
   scf:    3   -15063.766493   -15059.014115   -15059.014115  0.691606 -3.652916  1.696948
   scf:    4   -15059.292217   -15059.180680   -15059.180680  0.020027 -3.504315  0.730988
   scf:    5   -15059.231538   -15059.215156   -15059.215156  0.017106 -3.439575  0.142265
   scf:    6   -15059.218469   -15059.216993   -15059.216993  0.003307 -3.442522  0.081458
   scf:    7   -15059.217994   -15059.217582   -15059.217582  0.004108 -3.440852  0.032287
   scf:    8   -15059.217667   -15059.217629   -15059.217629  0.001143 -3.438197  0.014173
   scf:    9   -15059.217647   -15059.217640   -15059.217640  0.000547 -3.511615  0.003460
   scf:   10   -15059.217644   -15059.217642   -15059.217642  0.000062 -3.511214  0.002350
   scf:   11   -15059.217644   -15059.217643   -15059.217643  0.000069 -3.510986  0.001040
   scf:   12   -15059.217644   -15059.217643   -15059.217643  0.000034 -3.510851  0.000473

SCF Convergence by DM+H criterion
max |DM_out - DM_in|         :     0.0000340571
max |H_out - H_in|      (eV) :     0.0004727620
SCF cycle converged after 12 iterations

Using DM_out to compute the final energy and forces
No. of atoms with KB's overlaping orbs in proc 0. Max # of overlaps:     115     366

siesta: E_KS(eV) =           -15059.2176

siesta: Atomic forces (eV/Ang):
----------------------------------------
   Tot    0.013312   -0.007192    0.011211
----------------------------------------
   Max    4.392482
   Res    1.030600    sqrt( Sum f_i^2 / 3N )
----------------------------------------
   Max    4.392482    constrained

Stress tensor Voigt[x,y,z,yz,xz,xy] (kbar):       -8.29       -6.51       -4.35        0.12        0.47        0.79
(Free)E + p*V (eV/cell)   -15016.1089
Target enthalpy (eV/cell)   -15059.2176

                     ====================================
                        Begin CG opt. move =      7
                     ====================================

outcell: Unit cell vectors (Ang):
       20.913000    0.000000    0.000000
        0.000000   25.388000    0.000000
        0.000000    0.000000   20.372000

outcell: Cell vector modules (Ang)   :   20.913000   25.388000   20.372000
outcell: Cell angles (23,13,12) (deg):     90.0000     90.0000     90.0000
outcell: Cell volume (Ang**3)        :  10816.2943
<dSpData1D:S at geom step 7
  <sparsity:sparsity for geom step 7
    nrows_g=1071 nrows=1071 sparsity=.5155 nnzs=591295, refcount: 7>
  <dData1D:(new from dSpData1D) n=591295, refcount: 1>
refcount: 1>
new_DM -- step:     8
Re-using DM from previous geometries...
Number of DMs in history: 1
 DM extrapolation coefficients: 
1   1.00000
New DM after history re-use:
<dSpData2D:SpM extrapolated using coords
  <sparsity:sparsity for geom step 7
    nrows_g=1071 nrows=1071 sparsity=.5155 nnzs=591295, refcount: 9>
  <dData2D:(temp array for extrapolation) n=591295 m=1, refcount: 1>
refcount: 1>
No. of atoms with KB's overlaping orbs in proc 0. Max # of overlaps:     115     366

InitMesh: MESH = 240 x 270 x 216 = 13996800
InitMesh: Mesh cutoff (required, used) =   300.000   310.701 Ry
New grid distribution [1]: sub = 2

        iscf     Eharris(eV)        E_KS(eV)     FreeEng(eV)     dDmax    Ef(eV) dHmax(eV)
   scf:    1   -15058.800750   -15059.221658   -15059.221658  0.027852 -3.441263  0.317830
   scf:    2   -15058.933788   -15059.136929   -15059.136929  0.021909 -3.458819  1.157222
   scf:    3   -15059.247141   -15059.229484   -15059.229484  0.016534 -3.482671  0.025396
   scf:    4   -15059.229574   -15059.229537   -15059.229537  0.000262 -3.480074  0.007542
   scf:    5   -15059.229557   -15059.229548   -15059.229548  0.000219 -3.479321  0.003417
   scf:    6   -15059.229552   -15059.229550   -15059.229550  0.000136 -3.479132  0.000987
   scf:    7   -15059.229551   -15059.229551   -15059.229551  0.000054 -3.479270  0.000469

SCF Convergence by DM+H criterion
max |DM_out - DM_in|         :     0.0000541980
max |H_out - H_in|      (eV) :     0.0004688444
SCF cycle converged after 7 iterations

Using DM_out to compute the final energy and forces
No. of atoms with KB's overlaping orbs in proc 0. Max # of overlaps:     115     366

siesta: E_KS(eV) =           -15059.2296

siesta: Atomic forces (eV/Ang):
----------------------------------------
   Tot    0.013103   -0.006746    0.011324
----------------------------------------
   Max    4.222606
   Res    0.996745    sqrt( Sum f_i^2 / 3N )
----------------------------------------
   Max    4.222606    constrained

Stress tensor Voigt[x,y,z,yz,xz,xy] (kbar):       -8.40       -6.68       -4.55        0.13        0.49        0.77
(Free)E + p*V (eV/cell)   -15015.0384
Target enthalpy (eV/cell)   -15059.2296

cgvc: Finished line minimization    2.  Mean atomic displacement =    0.0902

                     ====================================
                        Begin CG opt. move =      8
                     ====================================

outcell: Unit cell vectors (Ang):
       20.913000    0.000000    0.000000
        0.000000   25.388000    0.000000
        0.000000    0.000000   20.372000

outcell: Cell vector modules (Ang)   :   20.913000   25.388000   20.372000
outcell: Cell angles (23,13,12) (deg):     90.0000     90.0000     90.0000
outcell: Cell volume (Ang**3)        :  10816.2943
<dSpData1D:S at geom step 8
  <sparsity:sparsity for geom step 8
    nrows_g=1071 nrows=1071 sparsity=.5127 nnzs=588093, refcount: 7>
  <dData1D:(new from dSpData1D) n=588093, refcount: 1>
refcount: 1>
new_DM -- step:     9
Re-using DM from previous geometries...
Number of DMs in history: 1
 DM extrapolation coefficients: 
1   1.00000
New DM after history re-use:
<dSpData2D:SpM extrapolated using coords
  <sparsity:sparsity for geom step 8
    nrows_g=1071 nrows=1071 sparsity=.5127 nnzs=588093, refcount: 9>
  <dData2D:(temp array for extrapolation) n=588093 m=1, refcount: 1>
refcount: 1>
Note: For starting DM, Qtot, Tr[D*S] =        330.00000000        329.61859661
No. of atoms with KB's overlaping orbs in proc 0. Max # of overlaps:     115     367

InitMesh: MESH = 240 x 270 x 216 = 13996800
InitMesh: Mesh cutoff (required, used) =   300.000   310.701 Ry
New grid distribution [1]: sub = 2

        iscf     Eharris(eV)        E_KS(eV)     FreeEng(eV)     dDmax    Ef(eV) dHmax(eV)
   scf:    1   -15069.196745   -15061.992802   -15061.992802  0.491737 -3.735246  2.987394
   scf:    2   -15026.801771   -15052.126547   -15052.126553  0.208584 -3.669603  7.642979
   scf:    3   -15066.111790   -15063.593499   -15063.593499  0.160865 -3.763933  0.301036
   scf:    4   -15063.623436   -15063.611365   -15063.611365  0.007585 -3.774808  0.174405
   scf:    5   -15063.619127   -15063.615635   -15063.615635  0.005381 -3.781942  0.065235
   scf:    6   -15063.617101   -15063.616469   -15063.616469  0.002839 -3.786402  0.010836
   scf:    7   -15063.616588   -15063.616534   -15063.616534  0.000822 -3.787222  0.006170
   scf:    8   -15063.616568   -15063.616552   -15063.616552  0.000566 -3.787325  0.003101
   scf:    9   -15063.616559   -15063.616556   -15063.616556  0.000224 -3.787185  0.001854
   scf:   10   -15063.616558   -15063.616557   -15063.616557  0.000177 -3.787002  0.000664
   scf:   11   -15063.616557   -15063.616557   -15063.616557  0.000028 -3.786944  0.000471

SCF Convergence by DM+H criterion
max |DM_out - DM_in|         :     0.0000282271
max |H_out - H_in|      (eV) :     0.0004710254
SCF cycle converged after 11 iterations

Using DM_out to compute the final energy and forces
No. of atoms with KB's overlaping orbs in proc 0. Max # of overlaps:     115     367

siesta: E_KS(eV) =           -15063.6166

siesta: Atomic forces (eV/Ang):
----------------------------------------
   Tot    0.003109   -0.003928    0.014169
----------------------------------------
   Max    3.365514
   Res    0.823030    sqrt( Sum f_i^2 / 3N )
----------------------------------------
   Max    3.365514    constrained

Stress tensor Voigt[x,y,z,yz,xz,xy] (kbar):       -2.98       -2.82       -0.79       -0.10        0.12        1.12
(Free)E + p*V (eV/cell)   -15048.7673
Target enthalpy (eV/cell)   -15063.6166

                     ====================================
                        Begin CG opt. move =      9
                     ====================================

outcell: Unit cell vectors (Ang):
       20.913000    0.000000    0.000000
        0.000000   25.388000    0.000000
        0.000000    0.000000   20.372000

outcell: Cell vector modules (Ang)   :   20.913000   25.388000   20.372000
outcell: Cell angles (23,13,12) (deg):     90.0000     90.0000     90.0000
outcell: Cell volume (Ang**3)        :  10816.2943
<dSpData1D:S at geom step 9
  <sparsity:sparsity for geom step 9
    nrows_g=1071 nrows=1071 sparsity=.5091 nnzs=584003, refcount: 7>
  <dData1D:(new from dSpData1D) n=584003, refcount: 1>
refcount: 1>
new_DM -- step:    10
Re-using DM from previous geometries...
Number of DMs in history: 1
 DM extrapolation coefficients: 
1   1.00000
New DM after history re-use:
<dSpData2D:SpM extrapolated using coords
  <sparsity:sparsity for geom step 9
    nrows_g=1071 nrows=1071 sparsity=.5091 nnzs=584003, refcount: 9>
  <dData2D:(temp array for extrapolation) n=584003 m=1, refcount: 1>
refcount: 1>
Note: For starting DM, Qtot, Tr[D*S] =        330.00000000        329.26946967
No. of atoms with KB's overlaping orbs in proc 0. Max # of overlaps:     115     352

InitMesh: MESH = 240 x 270 x 216 = 13996800
InitMesh: Mesh cutoff (required, used) =   300.000   310.701 Ry
New grid distribution [1]: sub = 2

        iscf     Eharris(eV)        E_KS(eV)     FreeEng(eV)     dDmax    Ef(eV) dHmax(eV)
   scf:    1   -15066.728930   -15060.684772   -15060.684772  0.318363 -3.805599  3.776458
   scf:    2   -15019.233487   -15049.061645   -15049.066243  0.226301 -3.758395  9.932385
   scf:    3   -15065.520494   -15062.597384   -15062.597384  0.173162 -3.815324  0.499440
   scf:    4   -15062.642555   -15062.625387   -15062.625387  0.008958 -3.850785  0.252121
   scf:    5   -15062.635263   -15062.630901   -15062.630901  0.004111 -3.870294  0.102348
   scf:    6   -15062.632746   -15062.632000   -15062.632000  0.003165 -3.880750  0.019993
   scf:    7   -15062.632139   -15062.632079   -15062.632079  0.000890 -3.881770  0.008278
   scf:    8   -15062.632125   -15062.632105   -15062.632105  0.000666 -3.881787  0.005528
   scf:    9   -15062.632114   -15062.632110   -15062.632110  0.000339 -3.881694  0.001707
   scf:   10   -15062.632112   -15062.632111   -15062.632111  0.000137 -3.881584  0.000892
   scf:   11   -15062.632111   -15062.632111   -15062.632111  0.000034 -3.881535  0.000348

SCF Convergence by DM+H criterion
max |DM_out - DM_in|         :     0.0000342227
max |H_out - H_in|      (eV) :     0.0003475572
SCF cycle converged after 11 iterations

Using DM_out to compute the final energy and forces
No. of atoms with KB's overlaping orbs in proc 0. Max # of overlaps:     115     352

siesta: E_KS(eV) =           -15062.6321

siesta: Atomic forces (eV/Ang):
----------------------------------------
   Tot   -0.004961   -0.010411   -0.019091
----------------------------------------
   Max    6.304179
   Res    1.496743    sqrt( Sum f_i^2 / 3N )
----------------------------------------
   Max    6.304179    constrained

Stress tensor Voigt[x,y,z,yz,xz,xy] (kbar):        1.58        0.36        2.51       -0.17       -0.10        1.29
(Free)E + p*V (eV/cell)   -15072.6426
Target enthalpy (eV/cell)   -15062.6321

                     ====================================
                        Begin CG opt. move =     10
                     ====================================

outcell: Unit cell vectors (Ang):
       20.913000    0.000000    0.000000
        0.000000   25.388000    0.000000
        0.000000    0.000000   20.372000

outcell: Cell vector modules (Ang)   :   20.913000   25.388000   20.372000
outcell: Cell angles (23,13,12) (deg):     90.0000     90.0000     90.0000
outcell: Cell volume (Ang**3)        :  10816.2943
<dSpData1D:S at geom step 10
  <sparsity:sparsity for geom step 10
    nrows_g=1071 nrows=1071 sparsity=.5106 nnzs=585647, refcount: 7>
  <dData1D:(new from dSpData1D) n=585647, refcount: 1>
refcount: 1>
new_DM -- step:    11
Re-using DM from previous geometries...
Number of DMs in history: 1
 DM extrapolation coefficients: 
1   1.00000
New DM after history re-use:
<dSpData2D:SpM extrapolated using coords
  <sparsity:sparsity for geom step 10
    nrows_g=1071 nrows=1071 sparsity=.5106 nnzs=585647, refcount: 9>
  <dData2D:(temp array for extrapolation) n=585647 m=1, refcount: 1>
refcount: 1>
Note: For starting DM, Qtot, Tr[D*S] =        330.00000000        330.39429612
No. of atoms with KB's overlaping orbs in proc 0. Max # of overlaps:     115     364

InitMesh: MESH = 240 x 270 x 216 = 13996800
InitMesh: Mesh cutoff (required, used) =   300.000   310.701 Ry
New grid distribution [1]: sub = 2

        iscf     Eharris(eV)        E_KS(eV)     FreeEng(eV)     dDmax    Ef(eV) dHmax(eV)
   scf:    1   -15053.610708   -15062.827046   -15062.827046  0.181914 -3.560648  3.184279
   scf:    2   -15041.320867   -15056.892090   -15056.892090  0.166625 -3.553688  7.783238
   scf:    3   -15065.652428   -15063.917187   -15063.917187  0.123839 -3.675038  0.281606
   scf:    4   -15063.931109   -15063.925302   -15063.925302  0.005288 -3.652137  0.167758
   scf:    5   -15063.929425   -15063.927644   -15063.927644  0.003028 -3.640069  0.043872
   scf:    6   -15063.928194   -15063.927952   -15063.927952  0.001228 -3.636301  0.011810
   scf:    7   -15063.928035   -15063.927999   -15063.927999  0.000685 -3.635352  0.005143
   scf:    8   -15063.928012   -15063.928006   -15063.928006  0.000362 -3.635168  0.002008
   scf:    9   -15063.928011   -15063.928008   -15063.928008  0.000245 -3.635164  0.001110
   scf:   10   -15063.928009   -15063.928009   -15063.928009  0.000101 -3.635191  0.000494
   scf:   11   -15063.928009   -15063.928009   -15063.928009  0.000035 -3.635217  0.000307

SCF Convergence by DM+H criterion
max |DM_out - DM_in|         :     0.0000348287
max |H_out - H_in|      (eV) :     0.0003071761
SCF cycle converged after 11 iterations

Using DM_out to compute the final energy and forces
No. of atoms with KB's overlaping orbs in proc 0. Max # of overlaps:     115     364

siesta: E_KS(eV) =           -15063.9280

siesta: Atomic forces (eV/Ang):
----------------------------------------
   Tot   -0.004228   -0.006902    0.001255
----------------------------------------
   Max    4.151586
   Res    1.016291    sqrt( Sum f_i^2 / 3N )
----------------------------------------
   Max    4.151586    constrained

Stress tensor Voigt[x,y,z,yz,xz,xy] (kbar):       -1.27       -1.63        0.43       -0.14        0.02        1.21
(Free)E + p*V (eV/cell)   -15058.3601
Target enthalpy (eV/cell)   -15063.9280

cgvc: Finished line minimization    3.  Mean atomic displacement =    0.0832

outcoor: Final (unrelaxed) atomic coordinates (Ang):        
   -2.16981480  -18.16546103   15.88410052   1       1  O
   -0.80311618  -18.40968908   15.65860066   2       2  C
   -0.62505048  -18.93792747   14.15740563   2       3  C
   -1.40742705  -18.04055873   13.21264176   1       4  O
   -2.61342630  -18.35158594   12.72180726   2       5  C
   -3.29579638  -19.41108108   12.96357085   1       6  O
   -3.06952098  -17.18072198   11.96007984   2       7  C
   -4.64979743  -16.88655906   12.41122699   2       8  C
   -5.25459223  -15.64893125   11.55767547   2       9  C
   -4.49936215  -15.02447185   10.62501163   2      10  C
   -3.16027803  -15.33467062   10.27349233   2      11  C
   -2.42108616  -16.40029111   10.96398756   2      12  C
    0.68540575  -19.47320739   13.35000387   2      13  C
    0.95650695  -18.71877157   11.86790148   2      14  C
    0.75829152  -17.34504518   11.73550624   1      15  O
    1.69982030  -16.52197716   12.21397562   2      16  C
    2.75251738  -16.85531919   12.85523055   1      17  O
    1.27237215  -15.09215090   11.88692664   2      18  C
   -0.11483834  -19.32712535   10.78006050   2      19  C
    0.93664303  -19.89619170    9.85296175   1      20  O
    1.95282958  -19.48401136   11.06373580   2      21  C
    2.96097106  -20.59676639   11.46986757   2      22  C
    2.76740577  -20.88601158   13.03701243   2      23  C
    3.69375898  -21.95826108   13.51512989   1      24  O
    1.38592334  -20.81890018   13.70604357   2      25  C
    0.49513280  -21.89913329   12.80248627   2      26  C
    1.40531406  -21.59978358   15.07109075   2      27  C
    0.80764552  -22.68473347   15.17117739   1      28  O
    1.87905890  -20.84608019   16.25959587   2      29  C
    1.82870808  -21.72016852   17.47667189   1      30  O
    2.87960389  -22.33733267   18.02258614   2      31  C
    4.10607486  -22.23030700   17.62385723   1      32  O
    2.41654876  -23.18483609   19.22821482   2      33  C
    1.37747312  -19.45862853   16.50218796   2      34  C
    2.12111464  -18.29795029   16.43027619   2      35  C
    1.42940183  -17.02837597   16.30891106   2      36  C
    2.13670590  -15.81969783   15.88552119   1      37  O
    3.01509746  -15.19207982   16.74604398   2      38  C
    3.02430157  -15.36348590   17.99149446   1      39  O
    3.60439743  -14.06361999   15.97249162   2      40  C
    4.47880615  -13.23385855   16.98729895   1      41  O
    2.63971616  -13.06455250   15.24302561   2      42  C
    1.50292232  -12.78180985   16.22973282   3      43  N
    0.15741053  -12.53338350   15.82654994   2      44  C
   -0.21649456  -12.59054466   14.65635336   1      45  O
   -0.66076730  -12.26339851   17.02461954   2      46  C
   -0.41703596  -11.15913764   17.92048862   2      47  C
   -1.31022267  -10.93842601   19.02914631   2      48  C
   -2.43278082  -11.83446860   19.26765634   2      49  C
   -2.62717407  -12.94755003   18.35540156   2      50  C
   -1.76646262  -13.17170338   17.24813625   2      51  C
    3.10997478  -11.92613988   14.43537543   2      52  C
    3.59651488  -12.12388352   13.11459322   2      53  C
    4.20116895  -11.03386939   12.44037544   2      54  C
    4.39361431   -9.74856158   13.09291318   2      55  C
    3.97792453   -9.60190697   14.47498070   2      56  C
    3.36913201  -10.69779362   15.16691185   2      57  C
   -0.01313309  -17.00200410   15.67390466   2      58  C
    3.60729193  -18.33462377   16.01488247   2      59  C
   -0.17098462  -19.28608888   16.74156670   2      60  C
   -0.38825174  -18.65463784   18.18537443   2      61  C
   -1.03951009  -20.61512287   16.84801475   2      62  C
   -2.49741630  -17.42383371   15.30963356   4      63  H
   -0.03286021  -18.01909903   14.13061514   4      64  H
   -3.86127161  -16.26969563   11.47229832   4      65  H
   -5.21044494  -17.83956242   12.16321440   4      66  H
   -4.57559979  -16.57903878   13.49921858   4      67  H
   -6.34151104  -15.38731125   11.82026254   4      68  H
   -4.92055627  -14.10610370    9.95750584   4      69  H
   -2.72025142  -14.67431270    9.44550746   4      70  H
   -1.36685747  -16.64856422   10.65740075   4      71  H
   -0.00259722  -20.04882442   12.78828408   4      72  H
    1.68888441  -14.81932299   10.84211530   4      73  H
    0.11944888  -15.02909227   11.85878076   4      74  H
    1.69583561  -14.38070455   12.67725434   4      75  H
   -0.80576199  -20.16949921   11.19094936   4      76  H
   -0.69504613  -18.54179580   10.25124322   4      77  H
    1.28191624  -20.33571874   11.47282943   4      78  H
    2.52075976  -21.57519999   10.96198746   4      79  H
    4.01139295  -20.48233259   11.19123387   4      80  H
    2.23959830  -21.72242413   12.53772616   4      81  H
    4.52438083  -21.86504779   12.96051948   4      82  H
    0.13599241  -21.46375651   11.77701833   4      83  H
    1.14011554  -22.83498481   12.51912269   4      84  H
   -0.42260259  -22.29667625   13.35534275   4      85  H
    0.72172641  -21.00806745   16.36968834   4      86  H
    1.47832929  -22.70808603   19.70373471   4      87  H
    2.15843191  -24.24458207   18.84587519   4      88  H
    3.28462195  -23.24019571   19.97450966   4      89  H
    1.61622280  -17.32749136   15.21118218   4      90  H
    2.68018517  -13.75799247   16.81364992   4      91  H
    4.53884851  -12.30480409   16.57684215   4      92  H
    3.17235081  -12.45146616   16.01884736   4      93  H
    1.80140100  -11.94045863   16.78527899   4      94  H
    0.40581153  -10.47308592   17.75577232   4      95  H
   -1.16076699  -10.09831870   19.71344753   4      96  H
   -3.12505138  -11.70248130   20.10175932   4      97  H
   -3.47757454  -13.62271457   18.53866114   4      98  H
   -1.94187002  -14.00598924   16.60196089   4      99  H
    3.42611994  -13.08229793   12.67856060   4     100  H
    4.50097222  -11.15697143   11.40377997   4     101  H
    4.85124820   -8.91432650   12.55925637   4     102  H
    4.14984006   -8.61316878   14.93844950   4     103  H
    3.07394528  -10.53251617   16.21853518   4     104  H
    0.26128947  -16.73150420   14.54014387   4     105  H
   -0.65151925  -16.15954935   16.00889183   4     106  H
    3.82198292  -17.51812253   15.22548354   4     107  H
    4.21609491  -18.10294033   16.95484466   4     108  H
    3.92088288  -19.35485118   15.58928197   4     109  H
   -0.41697634  -17.52896869   18.14210973   4     110  H
   -1.36652740  -19.03742272   18.66621443   4     111  H
    0.46992830  -18.99815572   18.87111521   4     112  H
   -1.78298553  -20.68395078   15.98293238   4     113  H
   -0.40341573  -21.57309216   16.88663958   4     114  H
   -1.64955064  -20.61247246   17.83145591   4     115  H

coxmol: Writing XMOL coordinates into file optimization.xyz                                                                                                                                                                                                                    

siesta: Program's energy decomposition (eV):
siesta: Ebs     =     -4422.747559
siesta: Eions   =     24532.715556
siesta: Ena     =      5790.165759
siesta: Ekin    =     10219.792698
siesta: Enl     =     -1327.180615
siesta: Eso     =         0.000000
siesta: Edftu   =         0.000000
siesta: DEna    =      -395.469725
siesta: DUscf   =        40.776375
siesta: DUext   =         0.000000
siesta: Ex      =     -4478.438050
siesta: Ec      =      -380.858896
siesta: Exc     =     -4859.296946
siesta: EbV     =         0.000000
siesta: eta*DQ  =         0.000000
siesta: Emadel  =         0.000000
siesta: Emeta   =         0.000000
siesta: Emolmec =         0.000000
siesta: Ekinion =         0.000000
siesta: Eharris =    -15063.928009
siesta: Etot    =    -15063.928009
siesta: FreeEng =    -15063.928009

siesta: Final energy (eV):
siesta:  Band Struct. =   -4422.747559
siesta:       Kinetic =   10219.792698
siesta:       Hartree =   65055.233877
siesta:         Edftu =       0.000000
siesta:       Eso     =       0.000000
siesta:    Ext. field =       0.000000
siesta:         Exch. =   -4478.438050
siesta:         Corr. =    -380.858896
siesta:     Bulk bias =       0.000000
siesta:   Exch.-corr. =   -4859.296946
siesta:  Ion-electron = -139308.864306
siesta:       Ion-ion =   53829.206667
siesta:       Ekinion =       0.000000
siesta: D3 dispersion =       0.000000
siesta:         Total =  -15063.928009
siesta:         Fermi =      -3.635217

siesta: Atomic forces (eV/Ang):
siesta:      1   -0.689601    0.088248    0.548957
siesta:      2    0.370574    1.589536   -0.496320
siesta:      3    2.106471    2.079948   -0.431674
siesta:      4    0.200616   -0.984848    0.464589
siesta:      5   -2.215760   -2.346558    0.095831
siesta:      6    1.417085    2.102268   -0.287627
siesta:      7   -0.372249   -0.573068    0.212208
siesta:      8    0.002480    0.951318   -0.880339
siesta:      9   -2.452978   -1.008986    2.137285
siesta:     10   -1.035945    3.433482   -2.755970
siesta:     11    2.768820   -0.212936   -0.861973
siesta:     12    0.021170    1.264575   -1.128761
siesta:     13   -2.167812   -0.168681   -0.365066
siesta:     14   -1.987349   -1.585588    0.178873
siesta:     15    0.324600    0.684344    0.124497
siesta:     16    2.405799    1.013829    1.523097
siesta:     17   -2.319090    0.294346   -1.320422
siesta:     18   -0.028964    0.630187   -0.099711
siesta:     19    0.325832    0.097668   -0.278959
siesta:     20    0.262536    1.719628    1.116521
siesta:     21   -1.076479   -4.005691   -0.256365
siesta:     22   -0.202288    0.089625   -0.265806
siesta:     23    0.712634   -2.539155   -1.986678
siesta:     24    1.590486    0.933820    0.479199
siesta:     25   -0.908513   -1.304987   -1.131583
siesta:     26   -0.365706   -1.011173   -0.212719
siesta:     27    0.017737    0.381256   -0.259355
siesta:     28    0.838203   -0.683042   -0.361770
siesta:     29   -1.624437   -0.460881    1.287489
siesta:     30   -0.021384    0.338786    0.225841
siesta:     31    4.151586   -0.069075   -0.567224
siesta:     32   -3.423104   -0.288830    1.010249
siesta:     33   -0.066572   -0.085075    0.103590
siesta:     34   -0.115556    0.968328    0.208251
siesta:     35    2.058140   -1.705347    0.130338
siesta:     36   -0.642768    1.062118   -3.408219
siesta:     37    0.246540    0.249883    0.747197
siesta:     38   -0.911198   -0.645622    1.293614
siesta:     39    0.761227   -0.732149   -0.826953
siesta:     40   -0.266475    1.589910    2.359740
siesta:     41    0.284768   -0.192903   -1.315228
siesta:     42    0.347143    0.589209    2.482552
siesta:     43   -0.239096    0.319627   -0.620011
siesta:     44    1.072642   -0.124023   -0.356229
siesta:     45   -0.383721   -0.408594   -0.428711
siesta:     46   -1.618041    0.117744    1.034330
siesta:     47   -1.830523   -1.377963    0.450483
siesta:     48   -0.785460   -1.579181   -0.658709
siesta:     49    1.715638   -0.316286   -2.056834
siesta:     50    0.504998    1.072815    0.608875
siesta:     51    0.555583    2.317577    1.555525
siesta:     52    0.803160    0.987857   -1.492299
siesta:     53   -0.098789    2.359432    1.082469
siesta:     54   -0.012083    1.193853    1.184226
siesta:     55   -1.020945   -2.078231    1.029257
siesta:     56    0.077726   -0.652924   -1.190681
siesta:     57    0.460392    0.789653   -2.313484
siesta:     58   -0.146036    1.019964   -0.409481
siesta:     59    0.351713    0.262940    0.311056
siesta:     60   -1.017277   -0.970233    1.966240
siesta:     61    0.005189    0.068888    0.517085
siesta:     62   -0.208451   -0.401345   -0.005698
siesta:     63    0.432317   -0.511443    0.178498
siesta:     64    1.325846    0.231271   -0.060337
siesta:     65   -0.957253   -0.734733    0.719223
siesta:     66    0.154501    0.227303    0.359084
siesta:     67   -0.275912   -0.333495   -0.214082
siesta:     68    0.962394   -0.218853   -0.359073
siesta:     69    0.373881   -1.749833    1.470475
siesta:     70    0.026421   -0.883342    0.814850
siesta:     71   -0.275883    0.085809    0.182146
siesta:     72   -1.387420   -0.660138   -0.905547
siesta:     73   -0.348931   -0.141842    0.830373
siesta:     74    0.959192    0.104663   -0.010329
siesta:     75   -0.320281   -0.391994   -0.558568
siesta:     76    0.485851    0.983057   -0.502758
siesta:     77   -0.314418    0.139906   -0.179536
siesta:     78    0.635743   -0.045597    0.552957
siesta:     79    1.178911    1.366220   -0.440193
siesta:     80    1.168786    0.287495   -0.209964
siesta:     81    0.223360   -0.249597   -0.014442
siesta:     82   -0.617884    0.060646    0.711799
siesta:     83    0.553047   -0.580045    1.142443
siesta:     84   -0.793599    0.636404    0.567564
siesta:     85    0.384825    0.307325   -0.397708
siesta:     86   -0.477905   -0.055360   -0.512545
siesta:     87    0.755803   -0.504574   -0.311813
siesta:     88    0.179652    0.809865    0.356048
siesta:     89   -0.608764   -0.049383   -0.457617
siesta:     90    0.711967   -0.823398   -0.203399
siesta:     91   -0.445239   -0.872417   -0.103375
siesta:     92    0.567126   -1.065461    0.239267
siesta:     93    0.460636    0.357540    0.010904
siesta:     94   -0.611396   -0.463316    0.362179
siesta:     95    0.911337    0.813979   -0.235553
siesta:     96    0.226584    0.689905    0.454460
siesta:     97   -0.477322    0.245968    0.704964
siesta:     98   -0.421750   -0.429381    0.053317
siesta:     99   -0.200258   -1.278267   -1.195297
siesta:    100   -0.117619   -1.593714   -0.987321
siesta:    101    0.435957   -0.089994   -1.088926
siesta:    102    0.379162    0.682922   -0.449740
siesta:    103    0.022917    0.273396    0.454876
siesta:    104   -0.226158   -0.050329    0.518250
siesta:    105   -1.126350    0.404889    1.589142
siesta:    106   -0.244277    0.272187    0.595430
siesta:    107   -0.160537   -0.669250    0.654309
siesta:    108   -0.031029   -0.123361   -0.585932
siesta:    109   -0.364351    0.650270    0.489269
siesta:    110    0.112727   -0.135212    0.256816
siesta:    111    0.797875    0.668724   -0.497372
siesta:    112   -0.591021    0.371650   -0.529404
siesta:    113    0.561057   -0.158006    0.374871
siesta:    114   -0.739911    0.188630   -0.006296
siesta:    115    0.636528   -0.153879   -1.063737
siesta: ----------------------------------------
siesta:    Tot   -0.004228   -0.006902    0.001255

siesta: Stress tensor (static) (eV/Ang**3):
siesta:    -0.000793    0.000753    0.000013
siesta:     0.000753   -0.001017   -0.000090
siesta:     0.000013   -0.000090    0.000266

siesta: Cell volume =      10816.294279 Ang**3

siesta: Pressure (static):
siesta:                Solid            Molecule  Units
siesta:           0.00000561         -0.00000005  Ry/Bohr**3
siesta:           0.00051477         -0.00000424  eV/Ang**3
siesta:           0.82475786         -0.00678778  kBar

Basis Enthalpy Calculation:
    Basis Pressure for species 1(O) :      0.0200000 GPa
    Basis Pressure for species 2(C) :      0.0200000 GPa
    Basis Pressure for species 3(N) :      0.0200000 GPa
    Basis Pressure for species 4(H) :      0.0200000 GPa

    Orbital volume contribution        =           8.346815 eV
    (Free)E + p_basis*V_orbitals       =      -15055.581194 eV
    (Free)Eharris+ p_basis*V_orbitals  =      -15055.581194 eV
WARNING: BASIS_ENTHALPY and BASIS_HARRIS_ENTHALPY files are deprecated. They will be removed in future releases.
Please use system_label.BASIS_ENTHALPY in your scripts instead.

siesta: Electric dipole (a.u.)  =   -1.908562    5.393285   -0.481245
siesta: Electric dipole (Debye) =   -4.851080   13.708364   -1.223202

cite: Please indicate the Siesta version in published work: 5.4.2
cite: This calculation has made use of features in the following articles
cite: which we encourage you to cite in published work.
cite: (Please see "optimization.bib" for a BibTeX file.)
        Primary SIESTA paper
          DOI: www.doi.org/10.1088/0953-8984/14/11/302
        PSML pseudopotential format
          DOI: www.doi.org/10.1016/j.cpc.2018.02.011


timer: Elapsed wall time (sec) =    2741.562
timer: CPU execution times (sec):

Routine            Calls   Time/call    Tot.time        %
siesta                 1    2740.364    2740.364   100.00
Setup                  1       0.229       0.229     0.01
bands                  1       0.000       0.000     0.00
KSV_init               1       0.000       0.000     0.00
IterGeom              11     249.096    2740.061    99.99
geom_init             11      28.028     308.308    11.25
state_init            11       0.432       4.752     0.17
hsparse               11       0.041       0.454     0.02
overlap               11       0.082       0.906     0.03
Setup_H0              11      11.886     130.749     4.77
naefs                 22       0.001       0.014     0.00
dnaefs                11       0.000       0.003     0.00
two-body              11       0.000       0.000     0.00
MolMec                22       0.000       0.000     0.00
kinefsm               22       0.084       1.846     0.07
nlefsm                22       0.270       5.949     0.22
DHSCF_Init            11      11.650     128.151     4.68
DHSCF1                11       0.054       0.598     0.02
InitMesh              11       0.054       0.595     0.02
INITMESH              11       0.000       0.000     0.00
DHSCF2                11      11.596     127.553     4.65
REMESH                11       0.645       7.092     0.26
REORD                449       0.018       8.244     0.30
PHION                 11       8.916      98.078     3.58
COMM_BSC             601       0.013       7.881     0.29
POISON               153       0.788     120.602     4.40
fft                  306       0.317      96.945     3.54
setup_H              131      15.663    2051.901    74.88
DHSCF                142      17.153    2435.758    88.88
DHSCF3               142      15.649    2222.108    81.09
rhoofd               142       7.133    1012.930    36.96
XC                   142       2.286     324.682    11.85
GXC-CellXC           142       2.214     314.389    11.47
gridxc@cellXC        142       2.214     314.389    11.47
vmat                 142       5.144     730.432    26.65
IterSCF              120      16.999    2039.915    74.44
compute_dm           120       1.330     159.644     5.83
diagon               120       1.329     159.454     5.82
r-eigvec             120       1.152     138.206     5.04
r-buildHS            120       0.002       0.256     0.01
rdiag                120       1.150     137.950     5.03
rdiag1               120       0.047       5.683     0.21
rdiag2               120       0.108      12.971     0.47
rdiag3               120       0.699      83.934     3.06
rdiag4               120       0.290      34.811     1.27
r-buildD             120       0.169      20.237     0.74
MIXER                109       0.005       0.514     0.02
PostSCF               11      35.619     391.813    14.30
FINAL_HF              11      35.619     391.812    14.30
DHSCF4                11      19.423     213.651     7.80
dfscf                 11      17.876     196.640     7.18
overfsm               11       0.085       0.939     0.03
writeHSX              11       0.005       0.055     0.00
state_analysis        11       0.000       0.004     0.00
siesta_move           11       0.001       0.009     0.00
Analysis               1       0.004       0.004     0.00
optical                1       0.000       0.000     0.00
  

>> End of run:  24-MAR-2026  12:32:00
Job completed
Job completed
