Executable      : siesta
Version         : 5.4.2
Architecture    : x86_64
Compiler version: GNU-14.3.0
Compiler flags  : -march=nocona -mtune=haswell -ftree-vectorize -fPIC -fstack-protector-strong -fno-plt -O2 -ffunction-sections -pipe -isystem <prefix>/include -I<prefix>/_build_env/include -fdebug-prefix-map=<prefix>/work=/usr/local/src/conda/siesta-5.4.2 -fdebug-prefix-map=<prefix>=/usr/local/src/conda-prefix -I<prefix>/lib -fallow-argument-mismatch -O3
Parallelisations: none
NetCDF support
NetCDF-4 support
Lua support
DFT-D3 support

Runtime information:
* Directory : /home/UAB/1641063/Documents/Geometry Optimization Naftol/input
* Running in serial mode.
>> Start of run:   1-APR-2026  17:28:49

                           *********************** 
                           *  WELCOME TO SIESTA  * 
                           *********************** 

 NOTE: Siesta V5 introduces some new defaults for basis-set generation
 NOTE: which might lead to slightly different numerical results.
 NOTE: Please see the manual for full details and compatibility measures.


reinit: Reading from file optimization.fdf

reinit: -----------------------------------------------------------------------
reinit: System Name: 
reinit: -----------------------------------------------------------------------
reinit: System Label: optimization
reinit: -----------------------------------------------------------------------

initatom: Reading input for the pseudopotentials and atomic orbitals ----------
Species number:   1 Atomic number:    6 Label: C
Species number:   2 Atomic number:    8 Label: O
Species number:   3 Atomic number:    1 Label: H

Ground state valence configuration (from tables):   2s02  2p02  3d00  4f00
Ground state valence configuration (from tables):   2s02  2p04  3d00  4f00
Ground state valence configuration (from tables):   1s01  2p00  3d00  4f00

---- Processing specs for species: C
Reading pseudopotential information in PSML from:
  C.psml
PSML file version: 1.1
Using libxc ids:  101 130
GGA--PBE XC_GGA_X_PBE--XC_GGA_C_PBE pb
PSML uuid: 297821e0-be41-11e7-6802-e1ff7dfff095

---- Processing specs for species: O
Reading pseudopotential information in PSML from:
  O.psml
PSML file version: 1.1
Using libxc ids:  101 130
GGA--PBE XC_GGA_X_PBE--XC_GGA_C_PBE pb
PSML uuid: 3cff85a0-be41-11e7-6c5c-1b1fe64d18ef

---- Processing specs for species: H
Reading pseudopotential information in PSML from:
  H.psml
PSML file version: 1.1
Using libxc ids:  101 130
GGA--PBE XC_GGA_X_PBE--XC_GGA_C_PBE pb
PSML uuid: f95fa9b0-be40-11e7-634a-9594ffff953f

---- Pseudopotential check for C 

Pseudized shells:
2s( 2.00) rc: 1.20
2p( 2.00) rc: 1.26
Valence configuration for ps generation: 2s:2p: Total charge:   4.000000

---- Pseudopotential check for O 

Pseudized shells:
2s( 2.00) rc: 1.36
2p( 4.00) rc: 1.46
3d( 0.00) rc: 1.26
Valence configuration for ps generation: 2s:2p: Total charge:   6.000000

---- Pseudopotential check for H 

Pseudized shells:
1s( 1.00) rc: 1.01
2p( 0.00) rc: 0.71
Valence configuration for ps generation: 1s: Total charge:   1.000000
For C, standard SIESTA heuristics set lmxkb to 3
 (one more than the basis l, including polarization orbitals).
Use PS.lmax or PS.KBprojectors blocks to override.
For O, standard SIESTA heuristics set lmxkb to 3
 (one more than the basis l, including polarization orbitals).
Use PS.lmax or PS.KBprojectors blocks to override.
For H, standard SIESTA heuristics set lmxkb to 2
 (one more than the basis l, including polarization orbitals).
Use PS.lmax or PS.KBprojectors blocks to override.
C pseudopotential only contains V_ls up to l=1 -- lmxkb reset.
O pseudopotential only contains V_ls up to l=2 -- lmxkb reset.
H pseudopotential only contains V_ls up to l=1 -- lmxkb reset.

<basis_specs>
===============================================================================
C                    Z=   6    Mass=  12.011        Charge= 0.17977+309
Lmxo=2 Lmxkb= 1    BasisType=split      Semic=F
L=0  Nsemic=0  Cnfigmx=2
          i=1  nzeta=2  polorb=0  (2s)
            splnorm:   0.15000    
               vcte:    40.000    
               rinn:  -0.90000    
               qcoe:    0.0000    
               qyuk:    0.0000    
               qwid:   0.10000E-01
                rcs:    0.0000      0.0000    
            lambdas:    1.0000      1.0000    
L=1  Nsemic=0  Cnfigmx=2
          i=1  nzeta=2  polorb=1  (2p)  (to be polarized perturbatively)
            splnorm:   0.15000    
               vcte:    40.000    
               rinn:  -0.90000    
               qcoe:    0.0000    
               qyuk:    0.0000    
               qwid:   0.10000E-01
                rcs:    0.0000      0.0000    
            lambdas:    1.0000      1.0000    
L=2  Nsemic=0  Cnfigmx=3
          i=1  nzeta=0  polorb=0  (3d)  (perturbative polarization orbital) (from 2p)
-------------------------------------------------------------------------------
L=0  Nkbl=1  erefs: 0.17977+309
L=1  Nkbl=1  erefs: 0.17977+309
===============================================================================
</basis_specs>

Using PAO.SplitTailNorm
atom: Called for C                     (Z =   6)
NOTE: C pseudopotential has channels up to l= 1
NOTE: PAOs with higher l will be generated with V_local
Maximum radius (at nrval) set to   50.00000 8518

read_vps: Pseudopotential generation method:
read_vps: ONCVPSP-3.Hamann's oncvpsp                        
Valence charge in pseudo generation:    4.00000

read_vps: Pseudopotential includes a core correction:
read_vps: Pseudo-core for xc-correction

xc_check: Exchange-correlation functional:
xc_check: GGA Perdew, Burke & Ernzerhof 1996
Got Vlocal (oncv-fit) from psml data
Choosing vlocal chloc cutoff:  4.122282
qtot up to nchloc:    4.00001153
atom: Maximum radius for chlocal:    4.12228
atom: Maximum radius for r*vlocal+2*Zval:    4.12228
Reading KB projs from C psml data
Using scalar-relativistic projectors in PSML file

PSML: Kleinman-Bylander projectors: 
   l= 0   rc=  1.219773   Ekb= 12.963096
   l= 0   rc=  1.219773   Ekb=  0.771007
   l= 1   rc=  1.278952   Ekb= -8.399923
   l= 1   rc=  1.278952   Ekb= -1.755033

PSML: Total number of  Kleinman-Bylander projectors:   8
atom: -------------------------------------------------------------------------

atom: SANKEY-TYPE ORBITALS:
atom: Selected multiple-zeta basis: split     

SPLIT: Orbitals with angular momentum L= 0

SPLIT: Basis orbitals for state 2s

SPLIT: PAO cut-off radius determined from an
SPLIT: energy shift=  0.000735 Ry
Split based on tail norm

   izeta = 1
                 lambda =    1.000000
                     rc =    5.865727
                 energy =   -1.009782
                kinetic =    0.907850
    potential(screened) =   -1.917632
       potential(ionic) =   -5.443189

   izeta = 2
                 rmatch =    3.302919
              splitnorm =    0.150000
                 energy =   -0.812047
                kinetic =    1.580868
    potential(screened) =   -2.392915
       potential(ionic) =   -6.200698

SPLIT: Orbitals with angular momentum L= 1

SPLIT: Basis orbitals for state 2p

SPLIT: PAO cut-off radius determined from an
SPLIT: energy shift=  0.000735 Ry
Split based on tail norm

   izeta = 1
                 lambda =    1.000000
                     rc =    7.564822
                 energy =   -0.387582
                kinetic =    2.372253
    potential(screened) =   -2.759835
       potential(ionic) =   -6.120604

   izeta = 2
                 rmatch =    4.252389
              splitnorm =    0.150000
                 energy =   -0.314961
                kinetic =    3.225377
    potential(screened) =   -3.540338
       potential(ionic) =   -7.207912
*Note: V_local used for l= 2

** Using vlocal for PAOs with L= 2

POLgen: Perturbative polarization orbital with L=  2

POLgen: Polarization orbital for state 2p
*Note: V_local used for lpol= 2

** Using vlocal for PAOs with L= 2
Split based on tail norm

   izeta = 1
                     rc =    7.564822
                 energy =    0.923681
                kinetic =    1.875515
    potential(screened) =   -0.951834
       potential(ionic) =   -3.587740
atom: Total number of Sankey-type orbitals: 13

atm_pop: Valence configuration (for local Pseudopot. screening):
 2s( 2.00)                                                            
 2p( 2.00)                                                            
 3d( 0.00)                                                            
Vna: chval, zval:    4.00000   4.00000

Vna:  Cut-off radius for the neutral-atom potential:   7.564822
comcore: Pseudo-core radius Rcore=  1.671741

atom: _________________________________________________________________________

<basis_specs>
===============================================================================
O                    Z=   8    Mass=  15.999        Charge= 0.17977+309
Lmxo=2 Lmxkb= 2    BasisType=split      Semic=F
L=0  Nsemic=0  Cnfigmx=2
          i=1  nzeta=2  polorb=0  (2s)
            splnorm:   0.15000    
               vcte:    40.000    
               rinn:  -0.90000    
               qcoe:    0.0000    
               qyuk:    0.0000    
               qwid:   0.10000E-01
                rcs:    0.0000      0.0000    
            lambdas:    1.0000      1.0000    
L=1  Nsemic=0  Cnfigmx=2
          i=1  nzeta=2  polorb=1  (2p)  (to be polarized perturbatively)
            splnorm:   0.15000    
               vcte:    40.000    
               rinn:  -0.90000    
               qcoe:    0.0000    
               qyuk:    0.0000    
               qwid:   0.10000E-01
                rcs:    0.0000      0.0000    
            lambdas:    1.0000      1.0000    
L=2  Nsemic=0  Cnfigmx=3
          i=1  nzeta=0  polorb=0  (3d)  (perturbative polarization orbital) (from 2p)
-------------------------------------------------------------------------------
L=0  Nkbl=1  erefs: 0.17977+309
L=1  Nkbl=1  erefs: 0.17977+309
L=2  Nkbl=1  erefs: 0.17977+309
===============================================================================
</basis_specs>

Using PAO.SplitTailNorm
atom: Called for O                     (Z =   8)
Maximum radius (at nrval) set to   50.00000 8518

read_vps: Pseudopotential generation method:
read_vps: ONCVPSP-3.Hamann's oncvpsp                        
Valence charge in pseudo generation:    6.00000

read_vps: Pseudopotential includes a core correction:
read_vps: Pseudo-core for xc-correction

xc_check: Exchange-correlation functional:
xc_check: GGA Perdew, Burke & Ernzerhof 1996
Got Vlocal (oncv-fit) from psml data
Choosing vlocal chloc cutoff:  6.020499
qtot up to nchloc:    6.00001015
atom: Maximum radius for chlocal:    6.02050
atom: Maximum radius for r*vlocal+2*Zval:    6.02050
Reading KB projs from O psml data
Using scalar-relativistic projectors in PSML file

PSML: Kleinman-Bylander projectors: 
   l= 0   rc=  1.372412   Ekb= 12.113471
   l= 0   rc=  1.372412   Ekb=  1.648048
   l= 1   rc=  1.474132   Ekb= -9.434259
   l= 1   rc=  1.474132   Ekb= -2.298541
   l= 2   rc=  1.277664   Ekb= -2.663910

PSML: Total number of  Kleinman-Bylander projectors:  13
atom: -------------------------------------------------------------------------

atom: SANKEY-TYPE ORBITALS:
atom: Selected multiple-zeta basis: split     

SPLIT: Orbitals with angular momentum L= 0

SPLIT: Basis orbitals for state 2s

SPLIT: PAO cut-off radius determined from an
SPLIT: energy shift=  0.000735 Ry
Split based on tail norm

   izeta = 1
                 lambda =    1.000000
                     rc =    4.566021
                 energy =   -1.760280
                kinetic =    1.535743
    potential(screened) =   -3.296022
       potential(ionic) =  -11.142033

   izeta = 2
                 rmatch =    2.434474
              splitnorm =    0.150000
                 energy =   -1.441584
                kinetic =    2.530209
    potential(screened) =   -3.971793
       potential(ionic) =  -12.502519

SPLIT: Orbitals with angular momentum L= 1

SPLIT: Basis orbitals for state 2p

SPLIT: PAO cut-off radius determined from an
SPLIT: energy shift=  0.000735 Ry
Split based on tail norm

   izeta = 1
                 lambda =    1.000000
                     rc =    5.912921
                 energy =   -0.662875
                kinetic =    4.463269
    potential(screened) =   -5.126144
       potential(ionic) =  -12.659411

   izeta = 2
                 rmatch =    3.103756
              splitnorm =    0.150000
                 energy =   -0.538095
                kinetic =    5.926477
    potential(screened) =   -6.464572
       potential(ionic) =  -14.688886

POLgen: Perturbative polarization orbital with L=  2

POLgen: Polarization orbital for state 2p
Split based on tail norm

   izeta = 1
                     rc =    5.912921
                 energy =    1.865729
                kinetic =    3.536681
    potential(screened) =   -1.670952
       potential(ionic) =   -7.378590
atom: Total number of Sankey-type orbitals: 13

atm_pop: Valence configuration (for local Pseudopot. screening):
 2s( 2.00)                                                            
 2p( 4.00)                                                            
 3d( 0.00)                                                            
Vna: chval, zval:    6.00000   6.00000

Vna:  Cut-off radius for the neutral-atom potential:   5.912921
comcore: Pseudo-core radius Rcore=  1.354557

atom: _________________________________________________________________________

<basis_specs>
===============================================================================
H                    Z=   1    Mass=  1.0080        Charge= 0.17977+309
Lmxo=1 Lmxkb= 1    BasisType=split      Semic=F
L=0  Nsemic=0  Cnfigmx=1
          i=1  nzeta=2  polorb=1  (1s)  (to be polarized perturbatively)
            splnorm:   0.15000    
               vcte:    40.000    
               rinn:  -0.90000    
               qcoe:    0.0000    
               qyuk:    0.0000    
               qwid:   0.10000E-01
                rcs:    0.0000      0.0000    
            lambdas:    1.0000      1.0000    
L=1  Nsemic=0  Cnfigmx=2
          i=1  nzeta=0  polorb=0  (2p)  (perturbative polarization orbital) (from 1s)
-------------------------------------------------------------------------------
L=0  Nkbl=1  erefs: 0.17977+309
L=1  Nkbl=1  erefs: 0.17977+309
===============================================================================
</basis_specs>

Using PAO.SplitTailNorm
atom: Called for H                     (Z =   1)
Maximum radius (at nrval) set to   50.00000 8518

read_vps: Pseudopotential generation method:
read_vps: ONCVPSP-3.Hamann's oncvpsp                        
Valence charge in pseudo generation:    1.00000

xc_check: Exchange-correlation functional:
xc_check: GGA Perdew, Burke & Ernzerhof 1996
Got Vlocal (oncv-fit) from psml data
Choosing vlocal chloc cutoff:  1.926399
qtot up to nchloc:    0.99999831
atom: Maximum radius for chlocal:    1.92640
atom: Maximum radius for r*vlocal+2*Zval:    1.92640
Reading KB projs from H psml data
Using scalar-relativistic projectors in PSML file

PSML: Kleinman-Bylander projectors: 
   l= 0   rc=  1.022342   Ekb= -3.402247
   l= 0   rc=  1.022342   Ekb= -1.068968
   l= 1   rc=  0.714575   Ekb= -1.006642

PSML: Total number of  Kleinman-Bylander projectors:   5
atom: -------------------------------------------------------------------------

atom: SANKEY-TYPE ORBITALS:
atom: Selected multiple-zeta basis: split     

SPLIT: Orbitals with angular momentum L= 0

SPLIT: Basis orbitals for state 1s

SPLIT: PAO cut-off radius determined from an
SPLIT: energy shift=  0.000735 Ry
Split based on tail norm

   izeta = 1
                 lambda =    1.000000
                     rc =    7.238756
                 energy =   -0.476315
                kinetic =    0.887622
    potential(screened) =   -1.363936
       potential(ionic) =   -1.882865

   izeta = 2
                 rmatch =    4.044510
              splitnorm =    0.150000
                 energy =   -0.376652
                kinetic =    1.480380
    potential(screened) =   -1.857033
       potential(ionic) =   -2.405174

POLgen: Perturbative polarization orbital with L=  1

POLgen: Polarization orbital for state 1s
Split based on tail norm

   izeta = 1
                     rc =    7.238756
                 energy =    0.508786
                kinetic =    1.081322
    potential(screened) =   -0.572537
       potential(ionic) =   -1.035092
atom: Total number of Sankey-type orbitals:  5

atm_pop: Valence configuration (for local Pseudopot. screening):
 1s( 1.00)                                                            
 2p( 0.00)                                                            
Vna: chval, zval:    1.00000   1.00000

Vna:  Cut-off radius for the neutral-atom potential:   7.238756

atom: _________________________________________________________________________

prinput: Basis input 

PAO.BasisType split     

%block ChemicalSpeciesLabel
    1    6 C                       # Species index, atomic number, species label
    2    8 O                       # Species index, atomic number, species label
    3    1 H                       # Species index, atomic number, species label
%endblock ChemicalSpeciesLabel

%block PAO.Basis                 # Define Basis set
# WARNING: This information might be incomplete!
C                     2                    # Species label, number of l-shells
 n=2   0   2                         # n, l, Nzeta 
   5.866      3.303   
   1.000      1.000   
 n=2   1   2 P   1                   # n, l, Nzeta, Polarization, NzetaPol
   7.565      4.252   
   1.000      1.000   
O                     2                    # Species label, number of l-shells
 n=2   0   2                         # n, l, Nzeta 
   4.566      2.434   
   1.000      1.000   
 n=2   1   2 P   1                   # n, l, Nzeta, Polarization, NzetaPol
   5.913      3.104   
   1.000      1.000   
H                     1                    # Species label, number of l-shells
 n=1   0   2 P   1                   # n, l, Nzeta, Polarization, NzetaPol
   7.239      4.045   
   1.000      1.000   
%endblock PAO.Basis

prinput: ----------------------------------------------------------------------

Dumping basis to NetCDF file C.ion.nc
Dumping basis to NetCDF file O.ion.nc
Dumping basis to NetCDF file H.ion.nc
coor:   Atomic-coordinates input format  =     Cartesian coordinates
coor:                                          (in Angstroms)

siesta: Atomic coordinates (Bohr) and species
siesta:     -0.45542   2.34515  -0.00567  1        1
siesta:      1.42485   4.24432  -0.00378  1        2
siesta:      3.99488   3.57158   0.01134  1        3
siesta:      4.73565   1.02423   0.02457  1        4
siesta:      3.48277  -3.49410  -0.02079  1        5
siesta:      1.58170  -5.35170  -0.03590  1        6
siesta:     -0.96565  -4.66951  -0.02079  1        7
siesta:     -1.63839  -2.10893  -0.01323  1        8
siesta:      0.27212  -0.23055  -0.01134  1        9
siesta:      2.86482  -0.91652  -0.00567  1       10
siesta:     -3.23586   3.06611  -0.00280  2       11
siesta:      0.93541   6.06980  -0.01323  3       12
siesta:      5.31391   4.92463   0.01323  3       13
siesta:      6.57625   0.59715   0.05480  3       14
siesta:     -3.46576  -1.62705  -0.00945  3       15
siesta:     -2.29980  -6.00744  -0.01512  3       16
siesta:      2.04846  -7.18285  -0.05858  3       17
siesta:      5.29879  -4.01378  -0.02079  3       18
siesta:     -5.14105   1.13937  -0.00144  3       19

siesta: System type = molecule  

initatomlists: Number of atoms, orbitals, and projectors:     19   183   133

coxmol: Writing XMOL coordinates into file optimization.xyz                                                                                                                                                                                                                    

siesta: ******************** Simulation parameters ****************************
siesta:
siesta: The following are some of the parameters of the simulation.
siesta: A complete list of the parameters used, including default values,
siesta: can be found in file out.fdf
siesta:
redata: Spin configuration                          = none
redata: Number of spin components                   = 1
redata: Time-Reversal Symmetry                      = T
redata: Spin spiral                                 = F
redata: Long output                                 =   F
redata: Number of Atomic Species                    =        3
redata: Charge density info will appear in .RHO file
redata: Write Mulliken charges (when)               = none
redata: Write Mulliken Pop.                         = NO
redata: Write Hirshfeld charges (when)              = none
redata: Write Voronoi charges (when)                = none
redata: Write spin charge (when)                    = none
redata: Matel table size (NRTAB)                    =     1024
redata: Mesh Cutoff                                 =   300.0000 Ry
redata: Net charge of the system                    =     0.0000 |e|
redata: Min. number of SCF Iter                     =        0
redata: Max. number of SCF Iter                     =     1000
redata: SCF convergence failure will abort job
redata: SCF mix quantity                            = Hamiltonian
redata: Mix DM or H after convergence               =   F
redata: Recompute H after scf cycle                 =   F
redata: Mix DM in first SCF step                    =   T
redata: Write Pulay info on disk                    =   F
redata: New DM Occupancy tolerance                  = 0.000000000001
redata: No kicks to SCF
redata: DM Mixing Weight for Kicks                  =     0.5000
redata: Require Harris convergence for SCF          =   F
redata: Harris energy tolerance for SCF             =     0.000100 eV
redata: Require DM convergence for SCF              =   T
redata: DM tolerance for SCF                        =     0.000100
redata: Require EDM convergence for SCF             =   F
redata: EDM tolerance for SCF                       =     0.001000 eV
redata: Require H convergence for SCF               =   T
redata: Hamiltonian tolerance for SCF               =     0.001000 eV
redata: Require (free) Energy convergence for SCF   =   F
redata: (free) Energy tolerance for SCF             =     0.000100 eV
redata: Using DFT-D3 dispersion                     =   F
redata: Using Saved Data (generic)                  =   F
redata: Use continuation files for DM               =   T
redata: Neglect nonoverlap interactions             =   F
redata: Method of Calculation                       = Diagonalization
redata: Electronic Temperature                      =   300.0000 K
redata: Fix the spin of the system                  =   F
redata: Max. number of TDED Iter                    =        1
redata: Number of TDED substeps                     =        3
redata: Dynamics option                             = CG coord. optimization
redata: Variable cell                               =   F
redata: Use continuation files for CG               =   F
redata: Max atomic displ per move                   =     0.1058 Ang
redata: Maximum number of optimization moves        =       10
redata: Force tolerance                             =     0.0050 eV/Ang
mix.SCF: Pulay mixing                            = Pulay
mix.SCF:    Variant                              = stable
mix.SCF:    History steps                        = 2
mix.SCF:    Linear mixing weight                 =     0.250000
mix.SCF:    Mixing weight                        =     0.250000
mix.SCF:    SVD condition                        = 0.1000E-07
redata: Save all siesta data in one NC              =   F
redata: ***********************************************************************

%block SCF.Mixers
  Pulay
%endblock SCF.Mixers

%block SCF.Mixer.Pulay
  # Mixing method
  method pulay
  variant stable

  # Mixing options
  weight 0.2500
  weight.linear 0.2500
  history 2
%endblock SCF.Mixer.Pulay

DM_history_depth set to one: no extrapolation allowed by default for geometry relaxation
Size of DM history Fstack: 1
Total number of electrons:    54.000000
Total ionic charge:    54.000000

siesta: k-grid: Number of k-points = 1
siesta: k-point is Gamma-only

diag: Algorithm                                     = D&C
diag: Used triangular part                          = Lower
diag: Absolute tolerance                            =  0.100E-15
diag: Orthogonalization factor                      =  0.100E-05
diag: Memory factor                                 =  1.0000


ts: **************************************************************
ts: Save H and S matrices                           =    F
ts: Save TSHS files in MD/FC simulation             =    F
ts: Save DM and EDM matrices                        =    F
ts: Only save the overlap matrix S                  =    F
ts: **************************************************************

************************ Begin: TS CHECKS AND WARNINGS ************************
************************ End: TS CHECKS AND WARNINGS **************************


                     ====================================
                        Begin CG opt. move =      0
                     ====================================

outcell: Unit cell vectors (Ang):
       16.200528    0.000000    0.000000
        0.000000   17.013000    0.000000
        0.000000    0.000000   10.060000

outcell: Cell vector modules (Ang)   :   16.200528   17.013000   10.060000
outcell: Cell angles (23,13,12) (deg):     90.0000     90.0000     90.0000
outcell: Cell volume (Ang**3)        :   2772.7330
<dSpData1D:S at geom step 0
  <sparsity:sparsity for geom step 0
    nrows_g=183 nrows=183 sparsity=.9799 nnzs=32817, refcount: 7>
  <dData1D:(new from dSpData1D) n=32817, refcount: 1>
refcount: 1>
new_DM -- step:     1
Initializing Density Matrix...

Attempting to read DM from file... Failed...
DM filled with atomic data:
<dSpData2D:DM initialized from atoms
  <sparsity:sparsity for geom step 0
    nrows_g=183 nrows=183 sparsity=.9799 nnzs=32817, refcount: 8>
  <dData2D:DM n=32817 m=1, refcount: 1>
refcount: 1>
No. of atoms with KB's overlaping orbs in proc 0. Max # of overlaps:      19     167

InitMesh: MESH = 180 x 180 x 108 = 3499200
InitMesh: Mesh cutoff (required, used) =   300.000   309.375 Ry
New grid distribution [1]: sub = 2

stepf: Fermi-Dirac step function

siesta: Program's energy decomposition (eV):
siesta: Ebs     =      -523.133158
siesta: Eions   =      3724.875044
siesta: Ena     =       990.951968
siesta: Ekin    =      1607.167866
siesta: Enl     =      -151.114773
siesta: Eso     =         0.000000
siesta: Edftu   =         0.000000
siesta: DEna    =      -155.708115
siesta: DUscf   =        22.005666
siesta: DUext   =         0.000000
siesta: Ex      =      -724.617691
siesta: Ec      =       -63.350188
siesta: Exc     =      -787.967879
siesta: EbV     =         0.000000
siesta: eta*DQ  =         0.000000
siesta: Emadel  =         0.000000
siesta: Emeta   =         0.000000
siesta: Emolmec =         0.000000
siesta: Ekinion =         0.000000
siesta: Eharris =     -2184.114239
siesta: Etot    =     -2199.540311
siesta: FreeEng =     -2199.540311

        iscf     Eharris(eV)        E_KS(eV)     FreeEng(eV)     dDmax    Ef(eV) dHmax(eV)
   scf:    1    -2184.114239    -2199.540311    -2199.540311  1.950131 -7.914909 10.097970
timer: Routine,Calls,Time,% = IterSCF        1       2.049  27.35
   scf:    2    -2208.428171    -2204.644918    -2204.644918  0.246956 -5.346118  5.449197
   scf:    3    -2206.797442    -2206.217128    -2206.217128  0.181345 -4.575726  1.152403
   scf:    4    -2206.366835    -2206.304349    -2206.304349  0.025536 -4.558814  0.603092
   scf:    5    -2206.346127    -2206.327217    -2206.327217  0.014375 -4.446704  0.348398
   scf:    6    -2206.341469    -2206.335104    -2206.335104  0.014517 -4.360726  0.136815
   scf:    7    -2206.336568    -2206.336023    -2206.336023  0.009639 -4.290591  0.054805
   scf:    8    -2206.336403    -2206.336233    -2206.336233  0.001396 -4.293190  0.027155
   scf:    9    -2206.336356    -2206.336302    -2206.336302  0.001155 -4.294820  0.010910
   scf:   10    -2206.336324    -2206.336314    -2206.336314  0.000438 -4.296294  0.005725
   scf:   11    -2206.336320    -2206.336318    -2206.336318  0.000420 -4.297653  0.001416
   scf:   12    -2206.336318    -2206.336318    -2206.336318  0.000070 -4.297889  0.000558

SCF Convergence by DM+H criterion
max |DM_out - DM_in|         :     0.0000702391
max |H_out - H_in|      (eV) :     0.0005581192
SCF cycle converged after 12 iterations

Using DM_out to compute the final energy and forces
No. of atoms with KB's overlaping orbs in proc 0. Max # of overlaps:      19     167

siesta: E_KS(eV) =            -2206.3363

siesta: E_KS - E_eggbox =     -2206.3363

siesta: Atomic forces (eV/Ang):
----------------------------------------
   Tot    0.005560    0.001245    0.000515
----------------------------------------
   Max    5.170085
   Res    2.673356    sqrt( Sum f_i^2 / 3N )
----------------------------------------
   Max    5.170085    constrained

Stress tensor Voigt[x,y,z,yz,xz,xy] (kbar):       -9.74      -12.22       -0.01       -0.02       -0.04        4.06
(Free)E + p*V (eV/cell)    -2193.6634
Target enthalpy (eV/cell)    -2206.3363

                     ====================================
                        Begin CG opt. move =      1
                     ====================================

outcell: Unit cell vectors (Ang):
       16.200528    0.000000    0.000000
        0.000000   17.013000    0.000000
        0.000000    0.000000   10.060000

outcell: Cell vector modules (Ang)   :   16.200528   17.013000   10.060000
outcell: Cell angles (23,13,12) (deg):     90.0000     90.0000     90.0000
outcell: Cell volume (Ang**3)        :   2772.7330
<dSpData1D:S at geom step 1
  <sparsity:sparsity for geom step 1
    nrows_g=183 nrows=183 sparsity=.9826 nnzs=32907, refcount: 7>
  <dData1D:(new from dSpData1D) n=32907, refcount: 1>
refcount: 1>
new_DM -- step:     2
Re-using DM from previous geometries...
Number of DMs in history: 1
 DM extrapolation coefficients: 
1   1.00000
New DM after history re-use:
<dSpData2D:SpM extrapolated using coords
  <sparsity:sparsity for geom step 1
    nrows_g=183 nrows=183 sparsity=.9826 nnzs=32907, refcount: 9>
  <dData2D:(temp array for extrapolation) n=32907 m=1, refcount: 1>
refcount: 1>
Note: For starting DM, Qtot, Tr[D*S] =         54.00000000         53.93783369
No. of atoms with KB's overlaping orbs in proc 0. Max # of overlaps:      19     168

InitMesh: MESH = 180 x 180 x 108 = 3499200
InitMesh: Mesh cutoff (required, used) =   300.000   309.375 Ry
New grid distribution [1]: sub = 2

        iscf     Eharris(eV)        E_KS(eV)     FreeEng(eV)     dDmax    Ef(eV) dHmax(eV)
   scf:    1    -2207.618688    -2207.728905    -2207.728905  0.088495 -4.305101  1.426723
   scf:    2    -2206.132855    -2207.292706    -2207.292706  0.096698 -4.872250  3.812667
   scf:    3    -2207.946730    -2207.816624    -2207.816624  0.069450 -4.634556  0.140227
   scf:    4    -2207.818273    -2207.817534    -2207.817534  0.001848 -4.657543  0.073767
   scf:    5    -2207.817959    -2207.817782    -2207.817782  0.001626 -4.674196  0.019992
   scf:    6    -2207.817816    -2207.817800    -2207.817800  0.000612 -4.677717  0.006683
   scf:    7    -2207.817809    -2207.817805    -2207.817805  0.000563 -4.679889  0.002110
   scf:    8    -2207.817806    -2207.817806    -2207.817806  0.000180 -4.680127  0.000829
   scf:    9    -2207.817806    -2207.817806    -2207.817806  0.000146 -4.680263  0.000380
   scf:   10    -2207.817806    -2207.817806    -2207.817806  0.000039 -4.680286  0.000223

SCF Convergence by DM+H criterion
max |DM_out - DM_in|         :     0.0000394378
max |H_out - H_in|      (eV) :     0.0002234731
SCF cycle converged after 10 iterations

Using DM_out to compute the final energy and forces
No. of atoms with KB's overlaping orbs in proc 0. Max # of overlaps:      19     168

siesta: E_KS(eV) =            -2207.8178

siesta: Atomic forces (eV/Ang):
----------------------------------------
   Tot   -0.003067    0.001047   -0.000812
----------------------------------------
   Max    4.436034
   Res    1.319843    sqrt( Sum f_i^2 / 3N )
----------------------------------------
   Max    4.436034    constrained

Stress tensor Voigt[x,y,z,yz,xz,xy] (kbar):       -6.43      -11.58       -0.01       -0.03       -0.03        3.42
(Free)E + p*V (eV/cell)    -2197.4243
Target enthalpy (eV/cell)    -2207.8178

                     ====================================
                        Begin CG opt. move =      2
                     ====================================

outcell: Unit cell vectors (Ang):
       16.200528    0.000000    0.000000
        0.000000   17.013000    0.000000
        0.000000    0.000000   10.060000

outcell: Cell vector modules (Ang)   :   16.200528   17.013000   10.060000
outcell: Cell angles (23,13,12) (deg):     90.0000     90.0000     90.0000
outcell: Cell volume (Ang**3)        :   2772.7330
<dSpData1D:S at geom step 2
  <sparsity:sparsity for geom step 2
    nrows_g=183 nrows=183 sparsity=.9854 nnzs=32999, refcount: 7>
  <dData1D:(new from dSpData1D) n=32999, refcount: 1>
refcount: 1>
new_DM -- step:     3
Re-using DM from previous geometries...
Number of DMs in history: 1
 DM extrapolation coefficients: 
1   1.00000
New DM after history re-use:
<dSpData2D:SpM extrapolated using coords
  <sparsity:sparsity for geom step 2
    nrows_g=183 nrows=183 sparsity=.9854 nnzs=32999, refcount: 9>
  <dData2D:(temp array for extrapolation) n=32999 m=1, refcount: 1>
refcount: 1>
Note: For starting DM, Qtot, Tr[D*S] =         54.00000000         53.84692569
No. of atoms with KB's overlaping orbs in proc 0. Max # of overlaps:      19     170

InitMesh: MESH = 180 x 180 x 108 = 3499200
InitMesh: Mesh cutoff (required, used) =   300.000   309.375 Ry
New grid distribution [1]: sub = 2

        iscf     Eharris(eV)        E_KS(eV)     FreeEng(eV)     dDmax    Ef(eV) dHmax(eV)
   scf:    1    -2206.548775    -2207.572773    -2207.572773  0.120249 -3.479387  2.904047
   scf:    2    -2202.040590    -2206.072405    -2206.072405  0.180695 -4.570434  7.408733
   scf:    3    -2208.376286    -2207.884098    -2207.884098  0.127472 -4.150800  0.239206
   scf:    4    -2207.888330    -2207.886458    -2207.886458  0.002817 -4.171692  0.132384
   scf:    5    -2207.887674    -2207.887157    -2207.887157  0.002663 -4.196984  0.038545
   scf:    6    -2207.887279    -2207.887225    -2207.887225  0.001237 -4.204309  0.010383
   scf:    7    -2207.887244    -2207.887236    -2207.887236  0.000729 -4.207236  0.004232
   scf:    8    -2207.887240    -2207.887238    -2207.887238  0.000305 -4.207899  0.001410
   scf:    9    -2207.887239    -2207.887238    -2207.887238  0.000190 -4.208283  0.000765
   scf:   10    -2207.887239    -2207.887239    -2207.887239  0.000099 -4.208517  0.000444

SCF Convergence by DM+H criterion
max |DM_out - DM_in|         :     0.0000992790
max |H_out - H_in|      (eV) :     0.0004441167
SCF cycle converged after 10 iterations

Using DM_out to compute the final energy and forces
No. of atoms with KB's overlaping orbs in proc 0. Max # of overlaps:      19     170

siesta: E_KS(eV) =            -2207.8872

siesta: Atomic forces (eV/Ang):
----------------------------------------
   Tot    0.001633   -0.000283   -0.000006
----------------------------------------
   Max    5.487276
   Res    2.048863    sqrt( Sum f_i^2 / 3N )
----------------------------------------
   Max    5.487276    constrained

Stress tensor Voigt[x,y,z,yz,xz,xy] (kbar):       -3.78      -13.16       -0.00       -0.04       -0.03        2.48
(Free)E + p*V (eV/cell)    -2198.1078
Target enthalpy (eV/cell)    -2207.8872

                     ====================================
                        Begin CG opt. move =      3
                     ====================================

outcell: Unit cell vectors (Ang):
       16.200528    0.000000    0.000000
        0.000000   17.013000    0.000000
        0.000000    0.000000   10.060000

outcell: Cell vector modules (Ang)   :   16.200528   17.013000   10.060000
outcell: Cell angles (23,13,12) (deg):     90.0000     90.0000     90.0000
outcell: Cell volume (Ang**3)        :   2772.7330
<dSpData1D:S at geom step 3
  <sparsity:sparsity for geom step 3
    nrows_g=183 nrows=183 sparsity=.9845 nnzs=32971, refcount: 7>
  <dData1D:(new from dSpData1D) n=32971, refcount: 1>
refcount: 1>
new_DM -- step:     4
Re-using DM from previous geometries...
Number of DMs in history: 1
 DM extrapolation coefficients: 
1   1.00000
New DM after history re-use:
<dSpData2D:SpM extrapolated using coords
  <sparsity:sparsity for geom step 3
    nrows_g=183 nrows=183 sparsity=.9845 nnzs=32971, refcount: 9>
  <dData2D:(temp array for extrapolation) n=32971 m=1, refcount: 1>
refcount: 1>
Note: For starting DM, Qtot, Tr[D*S] =         54.00000000         54.07785550
No. of atoms with KB's overlaping orbs in proc 0. Max # of overlaps:      19     169

InitMesh: MESH = 180 x 180 x 108 = 3499200
InitMesh: Mesh cutoff (required, used) =   300.000   309.375 Ry
New grid distribution [1]: sub = 2

        iscf     Eharris(eV)        E_KS(eV)     FreeEng(eV)     dDmax    Ef(eV) dHmax(eV)
   scf:    1    -2208.126099    -2208.093994    -2208.093994  0.059820 -4.809025  1.464568
   scf:    2    -2206.475546    -2207.640275    -2207.640275  0.109347 -3.663938  4.131696
   scf:    3    -2208.289146    -2208.166762    -2208.166762  0.084234 -4.492824  0.134891
   scf:    4    -2208.167973    -2208.167450    -2208.167450  0.002247 -4.465858  0.064613
   scf:    5    -2208.167726    -2208.167611    -2208.167611  0.001292 -4.451804  0.019116
   scf:    6    -2208.167636    -2208.167625    -2208.167625  0.000634 -4.447849  0.005576
   scf:    7    -2208.167630    -2208.167628    -2208.167628  0.000486 -4.446092  0.001974
   scf:    8    -2208.167629    -2208.167628    -2208.167628  0.000211 -4.445599  0.000778
   scf:    9    -2208.167629    -2208.167628    -2208.167628  0.000108 -4.445409  0.000432
   scf:   10    -2208.167629    -2208.167628    -2208.167628  0.000068 -4.445275  0.000217

SCF Convergence by DM+H criterion
max |DM_out - DM_in|         :     0.0000682835
max |H_out - H_in|      (eV) :     0.0002166392
SCF cycle converged after 10 iterations

Using DM_out to compute the final energy and forces
No. of atoms with KB's overlaping orbs in proc 0. Max # of overlaps:      19     169

siesta: E_KS(eV) =            -2208.1676

siesta: Atomic forces (eV/Ang):
----------------------------------------
   Tot   -0.008263   -0.002227   -0.002889
----------------------------------------
   Max    4.539013
   Res    1.351670    sqrt( Sum f_i^2 / 3N )
----------------------------------------
   Max    4.539013    constrained

Stress tensor Voigt[x,y,z,yz,xz,xy] (kbar):       -4.60      -12.07       -0.01       -0.03       -0.03        2.90
(Free)E + p*V (eV/cell)    -2198.5515
Target enthalpy (eV/cell)    -2208.1676

cgvc: Finished line minimization    1.  Mean atomic displacement =    0.0863

                     ====================================
                        Begin CG opt. move =      4
                     ====================================

outcell: Unit cell vectors (Ang):
       16.200528    0.000000    0.000000
        0.000000   17.013000    0.000000
        0.000000    0.000000   10.060000

outcell: Cell vector modules (Ang)   :   16.200528   17.013000   10.060000
outcell: Cell angles (23,13,12) (deg):     90.0000     90.0000     90.0000
outcell: Cell volume (Ang**3)        :   2772.7330
<dSpData1D:S at geom step 4
  <sparsity:sparsity for geom step 4
    nrows_g=183 nrows=183 sparsity=.9830 nnzs=32919, refcount: 7>
  <dData1D:(new from dSpData1D) n=32919, refcount: 1>
refcount: 1>
new_DM -- step:     5
Re-using DM from previous geometries...
Number of DMs in history: 1
 DM extrapolation coefficients: 
1   1.00000
New DM after history re-use:
<dSpData2D:SpM extrapolated using coords
  <sparsity:sparsity for geom step 4
    nrows_g=183 nrows=183 sparsity=.9830 nnzs=32919, refcount: 9>
  <dData2D:(temp array for extrapolation) n=32919 m=1, refcount: 1>
refcount: 1>
Note: For starting DM, Qtot, Tr[D*S] =         54.00000000         53.93326589
No. of atoms with KB's overlaping orbs in proc 0. Max # of overlaps:      19     168

InitMesh: MESH = 180 x 180 x 108 = 3499200
InitMesh: Mesh cutoff (required, used) =   300.000   309.375 Ry
New grid distribution [1]: sub = 2

        iscf     Eharris(eV)        E_KS(eV)     FreeEng(eV)     dDmax    Ef(eV) dHmax(eV)
   scf:    1    -2208.316978    -2209.070770    -2209.070770  0.194773 -3.791519  4.162075
   scf:    2    -2199.284891    -2206.374442    -2206.374442  0.308706 -4.363355 10.537363
   scf:    3    -2210.436173    -2209.545461    -2209.545461  0.195171 -4.594109  0.336997
   scf:    4    -2209.553416    -2209.550156    -2209.550156  0.007808 -4.588280  0.215371
   scf:    5    -2209.552144    -2209.551230    -2209.551230  0.003302 -4.611003  0.108527
   scf:    6    -2209.551878    -2209.551618    -2209.551618  0.003235 -4.638568  0.011089
   scf:    7    -2209.551642    -2209.551631    -2209.551631  0.000527 -4.642446  0.006052
   scf:    8    -2209.551640    -2209.551635    -2209.551635  0.000445 -4.644080  0.002444
   scf:    9    -2209.551637    -2209.551636    -2209.551636  0.000236 -4.644372  0.001049
   scf:   10    -2209.551637    -2209.551637    -2209.551637  0.000225 -4.644505  0.000346
   scf:   11    -2209.551637    -2209.551637    -2209.551637  0.000068 -4.644477  0.000338

SCF Convergence by DM+H criterion
max |DM_out - DM_in|         :     0.0000683464
max |H_out - H_in|      (eV) :     0.0003378874
SCF cycle converged after 11 iterations

Using DM_out to compute the final energy and forces
No. of atoms with KB's overlaping orbs in proc 0. Max # of overlaps:      19     168

siesta: E_KS(eV) =            -2209.5516

siesta: Atomic forces (eV/Ang):
----------------------------------------
   Tot    0.009495    0.002939    0.000228
----------------------------------------
   Max    4.358626
   Res    0.954427    sqrt( Sum f_i^2 / 3N )
----------------------------------------
   Max    4.358626    constrained

Stress tensor Voigt[x,y,z,yz,xz,xy] (kbar):        0.15       -7.00       -0.01       -0.03       -0.01        2.12
(Free)E + p*V (eV/cell)    -2205.5950
Target enthalpy (eV/cell)    -2209.5516

                     ====================================
                        Begin CG opt. move =      5
                     ====================================

outcell: Unit cell vectors (Ang):
       16.200528    0.000000    0.000000
        0.000000   17.013000    0.000000
        0.000000    0.000000   10.060000

outcell: Cell vector modules (Ang)   :   16.200528   17.013000   10.060000
outcell: Cell angles (23,13,12) (deg):     90.0000     90.0000     90.0000
outcell: Cell volume (Ang**3)        :   2772.7330
<dSpData1D:S at geom step 5
  <sparsity:sparsity for geom step 5
    nrows_g=183 nrows=183 sparsity=.9817 nnzs=32875, refcount: 7>
  <dData1D:(new from dSpData1D) n=32875, refcount: 1>
refcount: 1>
new_DM -- step:     6
Re-using DM from previous geometries...
Number of DMs in history: 1
 DM extrapolation coefficients: 
1   1.00000
New DM after history re-use:
<dSpData2D:SpM extrapolated using coords
  <sparsity:sparsity for geom step 5
    nrows_g=183 nrows=183 sparsity=.9817 nnzs=32875, refcount: 9>
  <dData2D:(temp array for extrapolation) n=32875 m=1, refcount: 1>
refcount: 1>
Note: For starting DM, Qtot, Tr[D*S] =         54.00000000         53.89433289
No. of atoms with KB's overlaping orbs in proc 0. Max # of overlaps:      19     168

InitMesh: MESH = 180 x 180 x 108 = 3499200
InitMesh: Mesh cutoff (required, used) =   300.000   309.375 Ry
New grid distribution [1]: sub = 2

        iscf     Eharris(eV)        E_KS(eV)     FreeEng(eV)     dDmax    Ef(eV) dHmax(eV)
   scf:    1    -2207.302658    -2209.258699    -2209.258699  0.267912 -3.987246  5.226619
   scf:    2    -2194.370506    -2205.153642    -2205.153642  0.343254 -4.240958 12.454383
   scf:    3    -2211.311553    -2209.972052    -2209.972052  0.211759 -3.914388  0.274064
   scf:    4    -2209.980400    -2209.976902    -2209.976902  0.007342 -3.906615  0.204956
   scf:    5    -2209.979078    -2209.978074    -2209.978074  0.004090 -3.926580  0.112821
   scf:    6    -2209.978843    -2209.978536    -2209.978536  0.004530 -3.956240  0.018820
   scf:    7    -2209.978561    -2209.978550    -2209.978550  0.000608 -3.961128  0.006568
   scf:    8    -2209.978558    -2209.978554    -2209.978554  0.000448 -3.963053  0.003319
   scf:    9    -2209.978557    -2209.978555    -2209.978555  0.000271 -3.963463  0.001950
   scf:   10    -2209.978556    -2209.978556    -2209.978556  0.000191 -3.963522  0.000746
   scf:   11    -2209.978556    -2209.978556    -2209.978556  0.000067 -3.963459  0.000342

SCF Convergence by DM+H criterion
max |DM_out - DM_in|         :     0.0000668133
max |H_out - H_in|      (eV) :     0.0003424650
SCF cycle converged after 11 iterations

Using DM_out to compute the final energy and forces
No. of atoms with KB's overlaping orbs in proc 0. Max # of overlaps:      19     168

siesta: E_KS(eV) =            -2209.9786

siesta: Atomic forces (eV/Ang):
----------------------------------------
   Tot    0.004728   -0.004211   -0.001717
----------------------------------------
   Max    3.293610
   Res    1.001911    sqrt( Sum f_i^2 / 3N )
----------------------------------------
   Max    3.293610    constrained

Stress tensor Voigt[x,y,z,yz,xz,xy] (kbar):        3.26       -3.25       -0.01       -0.03        0.00        0.52
(Free)E + p*V (eV/cell)    -2209.9817
Target enthalpy (eV/cell)    -2209.9786

                     ====================================
                        Begin CG opt. move =      6
                     ====================================

outcell: Unit cell vectors (Ang):
       16.200528    0.000000    0.000000
        0.000000   17.013000    0.000000
        0.000000    0.000000   10.060000

outcell: Cell vector modules (Ang)   :   16.200528   17.013000   10.060000
outcell: Cell angles (23,13,12) (deg):     90.0000     90.0000     90.0000
outcell: Cell volume (Ang**3)        :   2772.7330
<dSpData1D:S at geom step 6
  <sparsity:sparsity for geom step 6
    nrows_g=183 nrows=183 sparsity=.9826 nnzs=32905, refcount: 7>
  <dData1D:(new from dSpData1D) n=32905, refcount: 1>
refcount: 1>
new_DM -- step:     7
Re-using DM from previous geometries...
Number of DMs in history: 1
 DM extrapolation coefficients: 
1   1.00000
New DM after history re-use:
<dSpData2D:SpM extrapolated using coords
  <sparsity:sparsity for geom step 6
    nrows_g=183 nrows=183 sparsity=.9826 nnzs=32905, refcount: 9>
  <dData2D:(temp array for extrapolation) n=32905 m=1, refcount: 1>
refcount: 1>
No. of atoms with KB's overlaping orbs in proc 0. Max # of overlaps:      19     168

InitMesh: MESH = 180 x 180 x 108 = 3499200
InitMesh: Mesh cutoff (required, used) =   300.000   309.375 Ry
New grid distribution [1]: sub = 2

        iscf     Eharris(eV)        E_KS(eV)     FreeEng(eV)     dDmax    Ef(eV) dHmax(eV)
   scf:    1    -2210.002348    -2209.950658    -2209.950658  0.063737 -3.887333  1.496295
   scf:    2    -2208.624672    -2209.575572    -2209.575572  0.123451 -3.992333  3.900966
   scf:    3    -2210.107316    -2210.004350    -2210.004350  0.092624 -3.597443  0.123435
   scf:    4    -2210.004887    -2210.004653    -2210.004653  0.001787 -3.579012  0.059992
   scf:    5    -2210.004811    -2210.004743    -2210.004743  0.001473 -3.567510  0.015597
   scf:    6    -2210.004761    -2210.004753    -2210.004753  0.000824 -3.563664  0.004821
   scf:    7    -2210.004756    -2210.004755    -2210.004755  0.000419 -3.562099  0.001959
   scf:    8    -2210.004756    -2210.004755    -2210.004755  0.000196 -3.561536  0.000899
   scf:    9    -2210.004755    -2210.004755    -2210.004755  0.000116 -3.561307  0.000592
   scf:   10    -2210.004755    -2210.004755    -2210.004755  0.000049 -3.561268  0.000299

SCF Convergence by DM+H criterion
max |DM_out - DM_in|         :     0.0000489314
max |H_out - H_in|      (eV) :     0.0002991763
SCF cycle converged after 10 iterations

Using DM_out to compute the final energy and forces
No. of atoms with KB's overlaping orbs in proc 0. Max # of overlaps:      19     168

siesta: E_KS(eV) =            -2210.0048

siesta: Atomic forces (eV/Ang):
----------------------------------------
   Tot    0.006000   -0.004638   -0.000832
----------------------------------------
   Max    2.841282
   Res    0.927347    sqrt( Sum f_i^2 / 3N )
----------------------------------------
   Max    2.841282    constrained

Stress tensor Voigt[x,y,z,yz,xz,xy] (kbar):        2.75       -3.96       -0.01       -0.03       -0.00        1.01
(Free)E + p*V (eV/cell)    -2209.3035
Target enthalpy (eV/cell)    -2210.0048

cgvc: Finished line minimization    2.  Mean atomic displacement =    0.0769

                     ====================================
                        Begin CG opt. move =      7
                     ====================================

outcell: Unit cell vectors (Ang):
       16.200528    0.000000    0.000000
        0.000000   17.013000    0.000000
        0.000000    0.000000   10.060000

outcell: Cell vector modules (Ang)   :   16.200528   17.013000   10.060000
outcell: Cell angles (23,13,12) (deg):     90.0000     90.0000     90.0000
outcell: Cell volume (Ang**3)        :   2772.7330
<dSpData1D:S at geom step 7
  <sparsity:sparsity for geom step 7
    nrows_g=183 nrows=183 sparsity=.9796 nnzs=32805, refcount: 7>
  <dData1D:(new from dSpData1D) n=32805, refcount: 1>
refcount: 1>
new_DM -- step:     8
Re-using DM from previous geometries...
Number of DMs in history: 1
 DM extrapolation coefficients: 
1   1.00000
New DM after history re-use:
<dSpData2D:SpM extrapolated using coords
  <sparsity:sparsity for geom step 7
    nrows_g=183 nrows=183 sparsity=.9796 nnzs=32805, refcount: 9>
  <dData2D:(temp array for extrapolation) n=32805 m=1, refcount: 1>
refcount: 1>
Note: For starting DM, Qtot, Tr[D*S] =         54.00000000         54.06205490
No. of atoms with KB's overlaping orbs in proc 0. Max # of overlaps:      19     168

InitMesh: MESH = 180 x 180 x 108 = 3499200
InitMesh: Mesh cutoff (required, used) =   300.000   309.375 Ry
New grid distribution [1]: sub = 2

        iscf     Eharris(eV)        E_KS(eV)     FreeEng(eV)     dDmax    Ef(eV) dHmax(eV)
   scf:    1    -2209.328262    -2209.935297    -2209.935297  0.182655 -4.334107  2.282096
   scf:    2    -2206.239145    -2208.964941    -2208.964941  0.117684 -3.235728  5.422496
   scf:    3    -2210.544704    -2210.185249    -2210.185249  0.077916 -4.677307  0.176313
   scf:    4    -2210.188292    -2210.186899    -2210.186899  0.003363 -4.681797  0.100704
   scf:    5    -2210.188005    -2210.187547    -2210.187547  0.003388 -4.694204  0.016455
   scf:    6    -2210.187610    -2210.187581    -2210.187581  0.000850 -4.698919  0.007243
   scf:    7    -2210.187595    -2210.187589    -2210.187589  0.000591 -4.701521  0.003752
   scf:    8    -2210.187591    -2210.187590    -2210.187590  0.000185 -4.701653  0.002542
   scf:    9    -2210.187591    -2210.187591    -2210.187591  0.000213 -4.701630  0.000941
   scf:   10    -2210.187591    -2210.187591    -2210.187591  0.000088 -4.701556  0.000302

SCF Convergence by DM+H criterion
max |DM_out - DM_in|         :     0.0000879577
max |H_out - H_in|      (eV) :     0.0003018487
SCF cycle converged after 10 iterations

Using DM_out to compute the final energy and forces
No. of atoms with KB's overlaping orbs in proc 0. Max # of overlaps:      19     168

siesta: E_KS(eV) =            -2210.1876

siesta: Atomic forces (eV/Ang):
----------------------------------------
   Tot    0.001821   -0.003332   -0.001858
----------------------------------------
   Max    5.276460
   Res    1.198110    sqrt( Sum f_i^2 / 3N )
----------------------------------------
   Max    5.276460    constrained

Stress tensor Voigt[x,y,z,yz,xz,xy] (kbar):        5.05       -5.90       -0.00       -0.01        0.01       -0.73
(Free)E + p*V (eV/cell)    -2209.6993
Target enthalpy (eV/cell)    -2210.1876

                     ====================================
                        Begin CG opt. move =      8
                     ====================================

outcell: Unit cell vectors (Ang):
       16.200528    0.000000    0.000000
        0.000000   17.013000    0.000000
        0.000000    0.000000   10.060000

outcell: Cell vector modules (Ang)   :   16.200528   17.013000   10.060000
outcell: Cell angles (23,13,12) (deg):     90.0000     90.0000     90.0000
outcell: Cell volume (Ang**3)        :   2772.7330
<dSpData1D:S at geom step 8
  <sparsity:sparsity for geom step 8
    nrows_g=183 nrows=183 sparsity=.9812 nnzs=32859, refcount: 7>
  <dData1D:(new from dSpData1D) n=32859, refcount: 1>
refcount: 1>
new_DM -- step:     9
Re-using DM from previous geometries...
Number of DMs in history: 1
 DM extrapolation coefficients: 
1   1.00000
New DM after history re-use:
<dSpData2D:SpM extrapolated using coords
  <sparsity:sparsity for geom step 8
    nrows_g=183 nrows=183 sparsity=.9812 nnzs=32859, refcount: 9>
  <dData2D:(temp array for extrapolation) n=32859 m=1, refcount: 1>
refcount: 1>
No. of atoms with KB's overlaping orbs in proc 0. Max # of overlaps:      19     168

InitMesh: MESH = 180 x 180 x 108 = 3499200
InitMesh: Mesh cutoff (required, used) =   300.000   309.375 Ry
New grid distribution [1]: sub = 2

        iscf     Eharris(eV)        E_KS(eV)     FreeEng(eV)     dDmax    Ef(eV) dHmax(eV)
   scf:    1    -2210.240370    -2210.278089    -2210.278089  0.072135 -4.383026  1.125270
   scf:    2    -2209.168530    -2209.978022    -2209.978022  0.080964 -3.726057  2.740082
   scf:    3    -2210.438052    -2210.341685    -2210.341685  0.060024 -4.191871  0.112019
   scf:    4    -2210.342418    -2210.342090    -2210.342090  0.001312 -4.179856  0.050830
   scf:    5    -2210.342324    -2210.342221    -2210.342221  0.001263 -4.172806  0.013088
   scf:    6    -2210.342253    -2210.342239    -2210.342239  0.000687 -4.169786  0.003072
   scf:    7    -2210.342243    -2210.342241    -2210.342241  0.000275 -4.168915  0.001647
   scf:    8    -2210.342242    -2210.342242    -2210.342242  0.000139 -4.168682  0.001244
   scf:    9    -2210.342242    -2210.342242    -2210.342242  0.000096 -4.168628  0.000650

SCF Convergence by DM+H criterion
max |DM_out - DM_in|         :     0.0000958105
max |H_out - H_in|      (eV) :     0.0006497283
SCF cycle converged after 9 iterations

Using DM_out to compute the final energy and forces
No. of atoms with KB's overlaping orbs in proc 0. Max # of overlaps:      19     168

siesta: E_KS(eV) =            -2210.3422

siesta: Atomic forces (eV/Ang):
----------------------------------------
   Tot   -0.000580   -0.001563   -0.001392
----------------------------------------
   Max    2.320078
   Res    0.550318    sqrt( Sum f_i^2 / 3N )
----------------------------------------
   Max    2.320078    constrained

Stress tensor Voigt[x,y,z,yz,xz,xy] (kbar):        4.35       -4.72       -0.01       -0.02        0.01        0.22
(Free)E + p*V (eV/cell)    -2210.1290
Target enthalpy (eV/cell)    -2210.3422

cgvc: Finished line minimization    3.  Mean atomic displacement =    0.0426

                     ====================================
                        Begin CG opt. move =      9
                     ====================================

outcell: Unit cell vectors (Ang):
       16.200528    0.000000    0.000000
        0.000000   17.013000    0.000000
        0.000000    0.000000   10.060000

outcell: Cell vector modules (Ang)   :   16.200528   17.013000   10.060000
outcell: Cell angles (23,13,12) (deg):     90.0000     90.0000     90.0000
outcell: Cell volume (Ang**3)        :   2772.7330
<dSpData1D:S at geom step 9
  <sparsity:sparsity for geom step 9
    nrows_g=183 nrows=183 sparsity=.9795 nnzs=32801, refcount: 7>
  <dData1D:(new from dSpData1D) n=32801, refcount: 1>
refcount: 1>
new_DM -- step:    10
Re-using DM from previous geometries...
Number of DMs in history: 1
 DM extrapolation coefficients: 
1   1.00000
New DM after history re-use:
<dSpData2D:SpM extrapolated using coords
  <sparsity:sparsity for geom step 9
    nrows_g=183 nrows=183 sparsity=.9795 nnzs=32801, refcount: 9>
  <dData2D:(temp array for extrapolation) n=32801 m=1, refcount: 1>
refcount: 1>
No. of atoms with KB's overlaping orbs in proc 0. Max # of overlaps:      19     168

InitMesh: MESH = 180 x 180 x 108 = 3499200
InitMesh: Mesh cutoff (required, used) =   300.000   309.375 Ry
New grid distribution [1]: sub = 2

        iscf     Eharris(eV)        E_KS(eV)     FreeEng(eV)     dDmax    Ef(eV) dHmax(eV)
   scf:    1    -2210.853860    -2210.498070    -2210.498070  0.102653 -4.394915  0.925004
   scf:    2    -2209.195462    -2210.140908    -2210.140908  0.039474 -3.949077  2.353287
   scf:    3    -2210.678822    -2210.564715    -2210.564715  0.028105 -4.259427  0.096589
   scf:    4    -2210.565428    -2210.565098    -2210.565098  0.001116 -4.252134  0.051760
   scf:    5    -2210.565396    -2210.565272    -2210.565272  0.001266 -4.245472  0.008398
   scf:    6    -2210.565287    -2210.565280    -2210.565280  0.000405 -4.244833  0.004726
   scf:    7    -2210.565285    -2210.565283    -2210.565283  0.000349 -4.244302  0.001472
   scf:    8    -2210.565283    -2210.565283    -2210.565283  0.000136 -4.244108  0.001131
   scf:    9    -2210.565283    -2210.565283    -2210.565283  0.000088 -4.244007  0.000558

SCF Convergence by DM+H criterion
max |DM_out - DM_in|         :     0.0000882408
max |H_out - H_in|      (eV) :     0.0005582071
SCF cycle converged after 9 iterations

Using DM_out to compute the final energy and forces
No. of atoms with KB's overlaping orbs in proc 0. Max # of overlaps:      19     168

siesta: E_KS(eV) =            -2210.5653

siesta: Atomic forces (eV/Ang):
----------------------------------------
   Tot    0.006422    0.001476   -0.000822
----------------------------------------
   Max    1.776533
   Res    0.366899    sqrt( Sum f_i^2 / 3N )
----------------------------------------
   Max    1.776533    constrained

Stress tensor Voigt[x,y,z,yz,xz,xy] (kbar):        3.65       -3.37       -0.01       -0.01        0.01        0.35
(Free)E + p*V (eV/cell)    -2210.7296
Target enthalpy (eV/cell)    -2210.5653

                     ====================================
                        Begin CG opt. move =     10
                     ====================================

outcell: Unit cell vectors (Ang):
       16.200528    0.000000    0.000000
        0.000000   17.013000    0.000000
        0.000000    0.000000   10.060000

outcell: Cell vector modules (Ang)   :   16.200528   17.013000   10.060000
outcell: Cell angles (23,13,12) (deg):     90.0000     90.0000     90.0000
outcell: Cell volume (Ang**3)        :   2772.7330
<dSpData1D:S at geom step 10
  <sparsity:sparsity for geom step 10
    nrows_g=183 nrows=183 sparsity=.9782 nnzs=32759, refcount: 7>
  <dData1D:(new from dSpData1D) n=32759, refcount: 1>
refcount: 1>
new_DM -- step:    11
Re-using DM from previous geometries...
Number of DMs in history: 1
 DM extrapolation coefficients: 
1   1.00000
New DM after history re-use:
<dSpData2D:SpM extrapolated using coords
  <sparsity:sparsity for geom step 10
    nrows_g=183 nrows=183 sparsity=.9782 nnzs=32759, refcount: 9>
  <dData2D:(temp array for extrapolation) n=32759 m=1, refcount: 1>
refcount: 1>
No. of atoms with KB's overlaping orbs in proc 0. Max # of overlaps:      19     168

InitMesh: MESH = 180 x 180 x 108 = 3499200
InitMesh: Mesh cutoff (required, used) =   300.000   309.375 Ry
New grid distribution [1]: sub = 2

        iscf     Eharris(eV)        E_KS(eV)     FreeEng(eV)     dDmax    Ef(eV) dHmax(eV)
   scf:    1    -2210.121944    -2210.028427    -2210.028427  0.147789 -4.595030  1.663418
   scf:    2    -2206.055821    -2208.937496    -2208.937496  0.068099 -3.872046  4.380032
   scf:    3    -2210.577895    -2210.229014    -2210.229014  0.049967 -4.376901  0.172530
   scf:    4    -2210.231123    -2210.230149    -2210.230149  0.002121 -4.364212  0.092309
   scf:    5    -2210.230994    -2210.230645    -2210.230645  0.002326 -4.352970  0.014883
   scf:    6    -2210.230687    -2210.230667    -2210.230667  0.000529 -4.351624  0.008521
   scf:    7    -2210.230678    -2210.230673    -2210.230673  0.000411 -4.350711  0.003098
   scf:    8    -2210.230675    -2210.230674    -2210.230674  0.000188 -4.350365  0.001714
   scf:    9    -2210.230675    -2210.230675    -2210.230675  0.000121 -4.350209  0.000847
   scf:   10    -2210.230675    -2210.230675    -2210.230675  0.000042 -4.350189  0.000561

SCF Convergence by DM+H criterion
max |DM_out - DM_in|         :     0.0000420431
max |H_out - H_in|      (eV) :     0.0005610968
SCF cycle converged after 10 iterations

Using DM_out to compute the final energy and forces
No. of atoms with KB's overlaping orbs in proc 0. Max # of overlaps:      19     168

siesta: E_KS(eV) =            -2210.2307

siesta: Atomic forces (eV/Ang):
----------------------------------------
   Tot    0.000278   -0.000206   -0.000734
----------------------------------------
   Max    2.753472
   Res    1.062996    sqrt( Sum f_i^2 / 3N )
----------------------------------------
   Max    2.753472    constrained

Stress tensor Voigt[x,y,z,yz,xz,xy] (kbar):        1.76       -1.72       -0.01       -0.00        0.01        0.55
(Free)E + p*V (eV/cell)    -2210.2518
Target enthalpy (eV/cell)    -2210.2307

outcoor: Final (unrelaxed) atomic coordinates (Ang):        
   -0.36128513    1.29078253   -0.00272224   1       1  C
    0.65017003    2.26386434   -0.00242292   1       2  C
    2.04783738    1.90494899    0.00605263   1       3  C
    2.51802274    0.59466646    0.01194864   1       4  C
    1.85432042   -1.91117184   -0.01094767   1       5  C
    0.85552635   -2.85691828   -0.01880525   1       6  C
   -0.51843257   -2.49615322   -0.01192459   1       7  C
   -0.93317414   -1.18235199   -0.00718043   1       8  C
    0.06034021   -0.14822065   -0.00499226   1       9  C
    1.53289963   -0.47123290   -0.00049534   1      10  C
   -1.69597917    1.62924685   -0.00197375   2      11  O
    0.43123785    3.31868095   -0.00688223   3      12  H
    2.83238490    2.66437351    0.00835615   3      13  H
    3.59227087    0.27163511    0.02777773   3      14  H
   -1.94949044   -0.85762478   -0.00458180   3      15  H
   -1.31649680   -3.26843593   -0.00909639   3      16  H
    1.13427649   -3.92775174   -0.03077691   3      17  H
    2.92552702   -2.14484650   -0.01150079   3      18  H
   -2.37395666    0.76472075   -0.00126805   3      19  H

coxmol: Writing XMOL coordinates into file optimization.xyz                                                                                                                                                                                                                    

siesta: Program's energy decomposition (eV):
siesta: Ebs     =      -690.054747
siesta: Eions   =      3724.875044
siesta: Ena     =       989.655173
siesta: Ekin    =      1491.759685
siesta: Enl     =      -134.368710
siesta: Eso     =         0.000000
siesta: Edftu   =         0.000000
siesta: DEna    =       -79.059008
siesta: DUscf   =         7.675644
siesta: DUext   =         0.000000
siesta: Ex      =      -698.978765
siesta: Ec      =       -62.039650
siesta: Exc     =      -761.018415
siesta: EbV     =         0.000000
siesta: eta*DQ  =         0.000000
siesta: Emadel  =         0.000000
siesta: Emeta   =         0.000000
siesta: Emolmec =         0.000000
siesta: Ekinion =         0.000000
siesta: Eharris =     -2210.230675
siesta: Etot    =     -2210.230675
siesta: FreeEng =     -2210.230675

siesta: Final energy (eV):
siesta:  Band Struct. =    -690.054747
siesta:       Kinetic =    1491.759685
siesta:       Hartree =    5125.697509
siesta:         Edftu =       0.000000
siesta:       Eso     =       0.000000
siesta:    Ext. field =       0.000000
siesta:         Exch. =    -698.978765
siesta:         Corr. =     -62.039650
siesta:     Bulk bias =       0.000000
siesta:   Exch.-corr. =    -761.018415
siesta:  Ion-electron =  -11585.499487
siesta:       Ion-ion =    3518.830033
siesta:       Ekinion =       0.000000
siesta: D3 dispersion =       0.000000
siesta:         Total =   -2210.230675
siesta:         Fermi =      -4.350189

siesta: Atomic forces (eV/Ang):
siesta:      1    0.439745   -2.253558   -0.002104
siesta:      2    0.611661   -0.828817    0.004231
siesta:      3   -0.221367   -0.333371    0.005501
siesta:      4   -0.876163   -1.513492   -0.013225
siesta:      5    0.151783    2.753472    0.027160
siesta:      6   -0.214620   -0.895065   -0.003320
siesta:      7   -0.895028   -1.040837   -0.004471
siesta:      8    2.494433    1.012851    0.000721
siesta:      9    1.095402    1.471407    0.018129
siesta:     10   -1.663831   -0.725729   -0.005373
siesta:     11   -2.057198   -1.803255   -0.002325
siesta:     12   -0.567256    1.374394   -0.001059
siesta:     13    0.319427    1.014654    0.007034
siesta:     14   -0.022870    0.417331   -0.019044
siesta:     15   -2.021840   -0.024858    0.004128
siesta:     16    0.012915   -0.411241   -0.012022
siesta:     17    0.022060   -0.394949    0.006037
siesta:     18    0.689711   -0.495976   -0.006306
siesta:     19    2.703314    2.676834   -0.004427
siesta: ----------------------------------------
siesta:    Tot    0.000278   -0.000206   -0.000734

siesta: Stress tensor (static) (eV/Ang**3):
siesta:     0.001098    0.000344    0.000006
siesta:     0.000344   -0.001072   -0.000002
siesta:     0.000006   -0.000002   -0.000003

siesta: Cell volume =       2772.733004 Ang**3

siesta: Pressure (static):
siesta:                Solid            Molecule  Units
siesta:          -0.00000008          0.00000003  Ry/Bohr**3
siesta:          -0.00000761          0.00000307  eV/Ang**3
siesta:          -0.01219798          0.00492441  kBar

Basis Enthalpy Calculation:
    Basis Pressure for species 1(C) :      0.0200000 GPa
    Basis Pressure for species 2(O) :      0.0200000 GPa
    Basis Pressure for species 3(H) :      0.0200000 GPa

    Orbital volume contribution        =           1.468851 eV
    (Free)E + p_basis*V_orbitals       =       -2208.761824 eV
    (Free)Eharris+ p_basis*V_orbitals  =       -2208.761824 eV
WARNING: BASIS_ENTHALPY and BASIS_HARRIS_ENTHALPY files are deprecated. They will be removed in future releases.
Please use system_label.BASIS_ENTHALPY in your scripts instead.

siesta: Electric dipole (a.u.)  =   -0.193494   -0.432047    0.001420
siesta: Electric dipole (Debye) =   -0.491813   -1.098154    0.003610

cite: Please indicate the Siesta version in published work: 5.4.2
cite: This calculation has made use of features in the following articles
cite: which we encourage you to cite in published work.
cite: (Please see "optimization.bib" for a BibTeX file.)
        Primary SIESTA paper
          DOI: www.doi.org/10.1088/0953-8984/14/11/302
        PSML pseudopotential format
          DOI: www.doi.org/10.1016/j.cpc.2018.02.011


timer: Elapsed wall time (sec) =     335.315
timer: CPU execution times (sec):

Routine            Calls   Time/call    Tot.time        %
siesta                 1     335.099     335.099   100.00
Setup                  1       0.177       0.177     0.05
bands                  1       0.000       0.000     0.00
KSV_init               1       0.000       0.000     0.00
IterGeom              11      30.446     334.904    99.94
geom_init             11       4.296      47.261    14.10
state_init            11       0.108       1.187     0.35
hsparse               11       0.001       0.008     0.00
overlap               11       0.005       0.053     0.02
Setup_H0              11       2.105      23.160     6.91
naefs                 22       0.000       0.001     0.00
dnaefs                11       0.000       0.000     0.00
two-body              11       0.000       0.000     0.00
MolMec                22       0.000       0.000     0.00
kinefsm               22       0.005       0.109     0.03
nlefsm                22       0.016       0.347     0.10
DHSCF_Init            11       2.091      23.004     6.86
DHSCF1                11       0.037       0.407     0.12
InitMesh              11       0.037       0.406     0.12
INITMESH              11       0.000       0.000     0.00
DHSCF2                11       2.054      22.597     6.74
REMESH                11       0.109       1.201     0.36
REORD                433       0.005       1.953     0.58
PHION                 11       1.575      17.326     5.17
COMM_BSC             569       0.003       1.933     0.58
POISON               145       0.146      21.225     6.33
fft                  290       0.053      15.497     4.62
setup_H              123       2.080     255.883    76.36
DHSCF                134       2.305     308.810    92.15
DHSCF3               134       2.077     278.287    83.05
rhoofd               134       0.715      95.826    28.60
XC                   134       0.639      85.589    25.54
GXC-CellXC           134       0.620      83.112    24.80
gridxc@cellXC        134       0.620      83.111    24.80
vmat                 134       0.512      68.627    20.48
IterSCF              112       2.090     234.024    69.84
compute_dm           112       0.009       0.984     0.29
diagon               112       0.009       0.978     0.29
r-eigvec             112       0.007       0.782     0.23
r-buildHS            112       0.000       0.007     0.00
rdiag                112       0.007       0.775     0.23
rdiag1               112       0.000       0.026     0.01
rdiag2               112       0.001       0.088     0.03
rdiag3               112       0.004       0.462     0.14
rdiag4               112       0.002       0.193     0.06
r-buildD             112       0.002       0.186     0.06
MIXER                101       0.000       0.022     0.01
PostSCF               11       4.874      53.611    16.00
FINAL_HF              11       4.874      53.611    16.00
DHSCF4                11       2.775      30.523     9.11
dfscf                 11       2.497      27.471     8.20
overfsm               11       0.005       0.055     0.02
writeHSX              11       0.000       0.005     0.00
state_analysis        11       0.000       0.002     0.00
siesta_move           11       0.000       0.004     0.00
Analysis               1       0.001       0.001     0.00
optical                1       0.000       0.000     0.00
  

>> End of run:   1-APR-2026  17:34:25
Job completed
Job completed
